
     Program PWSCF v.5.0.2 (svn rev. 9656) starts on 27Oct2015 at  7:18:43 

     This program is part of the open-source Quantum ESPRESSO suite
     for quantum simulation of materials; please cite
         "P. Giannozzi et al., J. Phys.:Condens. Matter 21 395502 (2009);
          URL http://www.quantum-espresso.org", 
     in publications or presentations arising from this work. More details at
     http://www.quantum-espresso.org/quote.php

     Parallel version (MPI), running on   160 processors
     K-points division:     npool     =       2
     R & G space division:  proc/nbgrp/npool/nimage =      80

     Current dimensions of program PWSCF are:
     Max number of different atomic species (ntypx) = 10
     Max number of k-points (npk) =  40000
     Max angular momentum in pseudopotentials (lmaxx) =  3
     Waiting for input...
     Reading input from standard input
     WARNING: atomic wfc #  3 for atom type 1 has zero norm
     WARNING: atomic wfc #  4 for atom type 1 has zero norm
     WARNING: atomic wfc #  3 for atom type 3 has zero norm
     WARNING: atomic wfc #  4 for atom type 3 has zero norm

     Subspace diagonalization in iterative solution of the eigenvalue problem:
     scalapack distributed-memory algorithm (size of sub-group:  6*  6 procs)

 
     Parallelization info
     --------------------
     sticks:   dense  smooth     PW     G-vecs:    dense   smooth      PW
     Min         264     264     66                37262    37262    4656
     Max         265     265     68                37275    37275    4660
     Sum       21195   21195   5291              2981625  2981625  372655
 


     bravais-lattice index     =            0
     lattice parameter (alat)  =      29.2273  a.u.
     unit-cell volume          =   33981.0178 (a.u.)^3
     number of atoms/cell      =          478
     number of atomic types    =            4
     number of electrons       =      1912.00
     number of Kohn-Sham states=         1147
     kinetic-energy cutoff     =      75.0000  Ry
     charge density cutoff     =     300.0000  Ry
     convergence threshold     =      1.0E-08
     mixing beta               =       0.7000
     number of iterations used =            8  plain     mixing
     Exchange-correlation      =  SLA  PW   PBX  PBC ( 1 4 3 4 0)
     EXX-fraction              =        0.00

     celldm(1)=  29.227261  celldm(2)=   0.000000  celldm(3)=   0.000000
     celldm(4)=   0.000000  celldm(5)=   0.000000  celldm(6)=   0.000000

     crystal axes: (cart. coord. in units of alat)
               a(1) = (   1.000000   0.000000   0.000000 )  
               a(2) = (   0.000000   1.039230   0.000000 )  
               a(3) = (   0.000000   0.000000   1.309665 )  

     reciprocal axes: (cart. coord. in units 2 pi/alat)
               b(1) = (  1.000000  0.000000  0.000000 )  
               b(2) = (  0.000000  0.962250  0.000000 )  
               b(3) = (  0.000000  0.000000  0.763554 )  


     PseudoPot. # 1 for Si read from file:
     /home/hseo/Quantum_Espresso/Pseudo/gipaw/Si.pbe-tm-new-gipaw-dc.UPF
     MD5 check sum: 1da412a37211db039ad8711d87301bf0
     Pseudo is Norm-conserving, Zval =  4.0
     Generated by new atomic code, or converted to UPF format
     Using radial grid of 1525 points,  2 beta functions with: 
                l(1) =   0
                l(2) =   1

     PseudoPot. # 2 for C  read from file:
     /home/hseo/Quantum_Espresso/Pseudo/gipaw/C.pbe-tm-new-gipaw-dc.UPF
     MD5 check sum: c9fa938d11269a3b0a4c160d8754c0f1
     Pseudo is Norm-conserving, Zval =  4.0
     Generated by new atomic code, or converted to UPF format
     Using radial grid of 1441 points,  1 beta functions with: 
                l(1) =   0

     PseudoPot. # 3 for Si read from file:
     /home/hseo/Quantum_Espresso/Pseudo/gipaw/Si.pbe-tm-new-gipaw-dc.UPF
     MD5 check sum: 1da412a37211db039ad8711d87301bf0
     Pseudo is Norm-conserving, Zval =  4.0
     Generated by new atomic code, or converted to UPF format
     Using radial grid of 1525 points,  2 beta functions with: 
                l(1) =   0
                l(2) =   1

     PseudoPot. # 4 for C  read from file:
     /home/hseo/Quantum_Espresso/Pseudo/gipaw/C.pbe-tm-new-gipaw-dc.UPF
     MD5 check sum: c9fa938d11269a3b0a4c160d8754c0f1
     Pseudo is Norm-conserving, Zval =  4.0
     Generated by new atomic code, or converted to UPF format
     Using radial grid of 1441 points,  1 beta functions with: 
                l(1) =   0

     atomic species   valence    mass     pseudopotential
        Si             4.00    28.08550     Si( 1.00)
        C              4.00    12.01070     C ( 1.00)
        SI             4.00    28.08550     Si( 1.00)
        c              4.00    12.01070     C ( 1.00)

     Starting magnetic structure 
     atomic species   magnetization
        Si           0.000
        C            0.000
        SI           0.600
        c            0.600

     No symmetry found


                                    s                        frac. trans.

      isym =  1     identity                                     

 cryst.   s( 1) = (     1          0          0      )
                  (     0          1          0      )
                  (     0          0          1      )

 cart.    s( 1) = (  1.0000000  0.0000000  0.0000000 )
                  (  0.0000000  1.0000000  0.0000000 )
                  (  0.0000000  0.0000000  1.0000000 )


     point group C_1 (1)    
     there are  1 classes
     the character table:

       E    
A      1.00

     the symmetry operations in each class:
     E        1

   Cartesian axes

     site n.     atom                  positions (alat units)
         1           Si  tau(   1) = (   0.0000169   0.1155334   1.1463181  )
         2           Si  tau(   2) = (  -0.0000192   0.4618780   1.1463062  )
         3           Si  tau(   3) = (  -0.0000445   0.8083689   1.1464040  )
         4           Si  tau(   4) = (   0.2000365   0.1154042   1.1463287  )
         5           Si  tau(   5) = (   0.1996800   0.4616946   1.1465273  )
         6           Si  tau(   6) = (   0.1998412   0.8083776   1.1465002  )
         7           Si  tau(   7) = (   0.3999943   0.1153865   1.1463522  )
         8           Si  tau(   8) = (   0.3999900   0.4613800   1.1473725  )
         9           Si  tau(   9) = (   0.3999934   0.8086534   1.1465087  )
        10           Si  tau(  10) = (   0.5999721   0.1154092   1.1463310  )
        11           Si  tau(  11) = (   0.6003227   0.4617023   1.1465287  )
        12           Si  tau(  12) = (   0.6001656   0.8083812   1.1465017  )
        13           Si  tau(  13) = (   0.7999807   0.1155262   1.1463141  )
        14           Si  tau(  14) = (   0.8000155   0.4618711   1.1463006  )
        15           Si  tau(  15) = (   0.8000415   0.8083613   1.1464000  )
        16           Si  tau(  16) = (   0.1000136   0.2886839   1.1462887  )
        17           Si  tau(  17) = (   0.0998666   0.6352148   1.1465043  )
        18           Si  tau(  18) = (   0.0999763   0.9815274   1.1463595  )
        19           Si  tau(  19) = (   0.3000204   0.2884998   1.1464776  )
        20           Si  tau(  20) = (   0.2995506   0.6353336   1.1473891  )
        21           Si  tau(  21) = (   0.3000088   0.9814758   1.1463015  )
        22           Si  tau(  22) = (   0.4999724   0.2885081   1.1464820  )
        23           Si  tau(  23) = (   0.5004438   0.6353399   1.1473905  )
        24           Si  tau(  24) = (   0.4999872   0.9814818   1.1463048  )
        25           Si  tau(  25) = (   0.6999927   0.2886818   1.1462848  )
        26           Si  tau(  26) = (   0.7001410   0.6352112   1.1465008  )
        27           Si  tau(  27) = (   0.7000329   0.9815222   1.1463570  )
        28           Si  tau(  28) = (   0.8999949   0.2887116   1.1462853  )
        29           Si  tau(  29) = (   0.8999950   0.6351589   1.1463760  )
        30           Si  tau(  30) = (   0.8999955   0.9815716   1.1463436  )
        31           Si  tau(  31) = (   0.0000681   0.0000658   0.9825578  )
        32           Si  tau(  32) = (   0.0001288   0.3464662   0.9824541  )
        33           Si  tau(  33) = (   0.0000255   0.6929407   0.9826040  )
        34           Si  tau(  34) = (   0.2002284  -0.0002991   0.9825510  )
        35           Si  tau(  35) = (   0.2002243   0.3471072   0.9825813  )
        36           Si  tau(  36) = (   0.1997611   0.6929760   0.9829179  )
        37           Si  tau(  37) = (   0.3999945  -0.0002068   0.9824625  )
        38           Si  tau(  38) = (   0.3999886   0.3461476   0.9828729  )
        39           Si  tau(  39) = (   0.5997802  -0.0002977   0.9825541  )
        40           Si  tau(  40) = (   0.5997753   0.3471134   0.9825816  )
        41           Si  tau(  41) = (   0.6002354   0.6929789   0.9829173  )
        42           Si  tau(  42) = (   0.7999303   0.0000610   0.9825549  )
        43           Si  tau(  43) = (   0.7998670   0.3464639   0.9824507  )
        44           Si  tau(  44) = (   0.7999714   0.6929356   0.9826003  )
        45           Si  tau(  45) = (   0.1002582   0.1734093   0.9825513  )
        46           Si  tau(  46) = (   0.1005907   0.5193444   0.9826544  )
        47           Si  tau(  47) = (   0.0999849   0.8659307   0.9825805  )
        48           Si  tau(  48) = (   0.3001087   0.1731343   0.9825377  )
        49           Si  tau(  49) = (   0.3005248   0.8654769   0.9825911  )
        50           Si  tau(  50) = (   0.4998820   0.1731387   0.9825427  )
        51           Si  tau(  51) = (   0.4994664   0.8654781   0.9825930  )
        52           Si  tau(  52) = (   0.6997475   0.1734097   0.9825487  )
        53           Si  tau(  53) = (   0.6994080   0.5193479   0.9826485  )
        54           Si  tau(  54) = (   0.7000215   0.8659259   0.9825780  )
        55           Si  tau(  55) = (   0.8999948   0.1732808   0.9825182  )
        56           Si  tau(  56) = (   0.8999962   0.5194851   0.9826132  )
        57           Si  tau(  57) = (   0.8999951   0.8660743   0.9825494  )
        58           Si  tau(  58) = (   0.1000095   0.0576731   0.8188079  )
        59           Si  tau(  59) = (   0.1004743   0.4043939   0.8185003  )
        60           Si  tau(  60) = (   0.1001167   0.7504806   0.8186204  )
        61           Si  tau(  61) = (   0.3000299   0.0575545   0.8187304  )
        62           Si  tau(  62) = (   0.3011191   0.4056203   0.8180037  )
        63           Si  tau(  63) = (   0.3006166   0.7488381   0.8180412  )
        64           Si  tau(  64) = (   0.4999688   0.0575462   0.8187344  )
        65           Si  tau(  65) = (   0.4988776   0.4056096   0.8179996  )
        66           Si  tau(  66) = (   0.4993602   0.7488197   0.8180360  )
        67           Si  tau(  67) = (   0.6999999   0.0576780   0.8188071  )
        68           Si  tau(  68) = (   0.6995322   0.4043950   0.8184983  )
        69           Si  tau(  69) = (   0.6998885   0.7504863   0.8186181  )
        70           Si  tau(  70) = (   0.8999950   0.0577799   0.8188154  )
        71           Si  tau(  71) = (   0.8999960   0.4042288   0.8187139  )
        72           Si  tau(  72) = (   0.8999934   0.7506013   0.8187628  )
        73           Si  tau(  73) = (   0.0000905   0.2310224   0.8187684  )
        74           Si  tau(  74) = (   0.0000429   0.5775023   0.8186601  )
        75           Si  tau(  75) = (  -0.0000199   0.9237499   0.8187927  )
        76           Si  tau(  76) = (   0.2001099   0.2308397   0.8186761  )
        77           Si  tau(  77) = (   0.2019084   0.5776449   0.8180110  )
        78           Si  tau(  78) = (   0.1999198   0.9236734   0.8186881  )
        79           Si  tau(  79) = (   0.3999944   0.2310221   0.8185948  )
        80           Si  tau(  80) = (   0.3999998   0.9231457   0.8185055  )
        81           Si  tau(  81) = (   0.5998953   0.2308332   0.8186795  )
        82           Si  tau(  82) = (   0.5981134   0.5776464   0.8180139  )
        83           Si  tau(  83) = (   0.6000920   0.9236662   0.8186914  )
        84           Si  tau(  84) = (   0.7999071   0.2310299   0.8187649  )
        85           Si  tau(  85) = (   0.7999557   0.5775076   0.8186559  )
        86           Si  tau(  86) = (   0.8000172   0.9237573   0.8187888  )
        87           Si  tau(  87) = (   0.4999550   0.1732943   0.6551457  )
        88           Si  tau(  88) = (   0.4992614   0.5200681   0.6558600  )
        89           Si  tau(  89) = (   0.4997809   0.8656583   0.6552887  )
        90           Si  tau(  90) = (   0.6999135   0.1732919   0.6551975  )
        91           Si  tau(  91) = (   0.6995900   0.5196226   0.6552613  )
        92           Si  tau(  92) = (   0.6999099   0.8659590   0.6551354  )
        93           Si  tau(  93) = (   0.8999955   0.1733099   0.6551640  )
        94           Si  tau(  94) = (   0.8999970   0.5196623   0.6551789  )
        95           Si  tau(  95) = (   0.8999951   0.8660188   0.6551376  )
        96           Si  tau(  96) = (   0.0000293   0.0000300   0.6551603  )
        97           Si  tau(  97) = (   0.0001301   0.3465520   0.6551888  )
        98           Si  tau(  98) = (   0.0000949   0.6927957   0.6551310  )
        99           Si  tau(  99) = (   0.2000561  -0.0000550   0.6551802  )
       100           Si  tau( 100) = (   0.2002185   0.3468147   0.6553044  )
       101           Si  tau( 101) = (   0.2003184   0.6926498   0.6551100  )
       102           Si  tau( 102) = (   0.3999960  -0.0001621   0.6551758  )
       103           Si  tau( 103) = (   0.3999935   0.3468199   0.6551312  )
       104           Si  tau( 104) = (   0.3999895   0.6919212   0.6557116  )
       105           Si  tau( 105) = (   0.5999536  -0.0000583   0.6551825  )
       106           Si  tau( 106) = (   0.5997909   0.3468106   0.6553053  )
       107           Si  tau( 107) = (   0.5996907   0.6926470   0.6551098  )
       108           Si  tau( 108) = (   0.7999681   0.0000341   0.6551570  )
       109           Si  tau( 109) = (   0.7998690   0.3465559   0.6551860  )
       110           Si  tau( 110) = (   0.7999022   0.6927997   0.6551275  )
       111           Si  tau( 111) = (   0.1000959   0.1732896   0.6551986  )
       112           Si  tau( 112) = (   0.1004230   0.5196202   0.6552636  )
       113           Si  tau( 113) = (   0.1000993   0.8659567   0.6551384  )
       114           Si  tau( 114) = (   0.3000418   0.1732987   0.6551422  )
       115           Si  tau( 115) = (   0.3007429   0.5200736   0.6558715  )
       116           Si  tau( 116) = (   0.3002167   0.8656642   0.6552871  )
       117           Si  tau( 117) = (   0.0000288   0.1155261   0.4915467  )
       118           Si  tau( 118) = (   0.0000815   0.4619742   0.4916094  )
       119           Si  tau( 119) = (   0.0000248   0.8082887   0.4915254  )
       120           Si  tau( 120) = (   0.2000345   0.1154765   0.4915567  )
       121           Si  tau( 121) = (   0.1999666   0.4618649   0.4913404  )
       122           Si  tau( 122) = (   0.2000662   0.8082288   0.4915450  )
       123           Si  tau( 123) = (   0.3999952   0.1154489   0.4915636  )
       124           Si  tau( 124) = (   0.3999945   0.4619579   0.4915904  )
       125           Si  tau( 125) = (   0.3999951   0.8083316   0.4913330  )
       126           Si  tau( 126) = (   0.5999750   0.1154813   0.4915589  )
       127           Si  tau( 127) = (   0.6000454   0.4618689   0.4913398  )
       128           Si  tau( 128) = (   0.5999442   0.8082333   0.4915461  )
       129           Si  tau( 129) = (   0.7999689   0.1155185   0.4915432  )
       130           Si  tau( 130) = (   0.7999171   0.4619665   0.4916064  )
       131           Si  tau( 131) = (   0.7999731   0.8082811   0.4915215  )
       132           Si  tau( 132) = (   0.1001109   0.2887688   0.4916081  )
       133           Si  tau( 133) = (   0.1000864   0.6350795   0.4915452  )
       134           Si  tau( 134) = (   0.1000323   0.9814840   0.4915373  )
       135           Si  tau( 135) = (   0.3000277   0.2887629   0.4915571  )
       136           Si  tau( 136) = (   0.3000342   0.6350541   0.4915596  )
       137           Si  tau( 137) = (   0.3000076   0.9813747   0.4916047  )
       138           Si  tau( 138) = (   0.4999693   0.2887706   0.4915604  )
       139           Si  tau( 139) = (   0.4999615   0.6350631   0.4915629  )
       140           Si  tau( 140) = (   0.4999904   0.9813819   0.4916076  )
       141           Si  tau( 141) = (   0.6998994   0.2887639   0.4916068  )
       142           Si  tau( 142) = (   0.6999237   0.6350741   0.4915424  )
       143           Si  tau( 143) = (   0.6999774   0.9814793   0.4915347  )
       144           Si  tau( 144) = (   0.8999957   0.2887713   0.4915786  )
       145           Si  tau( 145) = (   0.8999953   0.6350988   0.4915511  )
       146           Si  tau( 146) = (   0.8999952   0.9815126   0.4915217  )
       147           Si  tau( 147) = (   0.0000104  -0.0000191   0.3278362  )
       148           Si  tau( 148) = (   0.0000265   0.3464118   0.3278790  )
       149           Si  tau( 149) = (   0.0000087   0.6927876   0.3278548  )
       150           Si  tau( 150) = (   0.2000212  -0.0000447   0.3278558  )
       151           Si  tau( 151) = (   0.2000310   0.3463553   0.3277917  )
       152           Si  tau( 152) = (   0.2000084   0.6927891   0.3278617  )
       153           Si  tau( 153) = (   0.3999951  -0.0000611   0.3278838  )
       154           Si  tau( 154) = (   0.3999949   0.3463943   0.3278747  )
       155           Si  tau( 155) = (   0.3999947   0.6927695   0.3278643  )
       156           Si  tau( 156) = (   0.5999885  -0.0000421   0.3278580  )
       157           Si  tau( 157) = (   0.5999789   0.3463577   0.3277941  )
       158           Si  tau( 158) = (   0.6000014   0.6927915   0.3278640  )
       159           Si  tau( 159) = (   0.7999873  -0.0000232   0.3278325  )
       160           Si  tau( 160) = (   0.7999713   0.3464075   0.3278755  )
       161           Si  tau( 161) = (   0.7999890   0.6927834   0.3278509  )
       162           Si  tau( 162) = (   0.1000260   0.1732013   0.3278561  )
       163           Si  tau( 163) = (   0.0999918   0.5196277   0.3277977  )
       164           Si  tau( 164) = (   0.1000214   0.8659899   0.3278465  )
       165           Si  tau( 165) = (   0.3000032   0.1731864   0.3278587  )
       166           Si  tau( 166) = (   0.3000159   0.5195966   0.3278618  )
       167           Si  tau( 167) = (   0.2999644   0.8659852   0.3277925  )
       168           Si  tau( 168) = (   0.4999944   0.1731906   0.3278621  )
       169           Si  tau( 169) = (   0.4999812   0.5196011   0.3278652  )
       170           Si  tau( 170) = (   0.5000332   0.8659893   0.3277957  )
       171           Si  tau( 171) = (   0.6999839   0.1731987   0.3278537  )
       172           Si  tau( 172) = (   0.7000185   0.5196249   0.3277948  )
       173           Si  tau( 173) = (   0.6999886   0.8659873   0.3278437  )
       174           Si  tau( 174) = (   0.8999952   0.1731980   0.3278431  )
       175           Si  tau( 175) = (   0.8999951   0.5195955   0.3278734  )
       176           Si  tau( 176) = (   0.8999952   0.8659970   0.3278360  )
       177           Si  tau( 177) = (   0.1000109   0.0577187   0.1641467  )
       178           Si  tau( 178) = (   0.0999939   0.4041168   0.1641661  )
       179           Si  tau( 179) = (   0.0999659   0.7505623   0.1642140  )
       180           Si  tau( 180) = (   0.2999991   0.0577102   0.1641639  )
       181           Si  tau( 181) = (   0.2999948   0.4040977   0.1642279  )
       182           Si  tau( 182) = (   0.2999716   0.7505597   0.1642263  )
       183           Si  tau( 183) = (   0.4999983   0.0577026   0.1641675  )
       184           Si  tau( 184) = (   0.5000027   0.4040902   0.1642316  )
       185           Si  tau( 185) = (   0.5000255   0.7505518   0.1642302  )
       186           Si  tau( 186) = (   0.6999988   0.0577234   0.1641441  )
       187           Si  tau( 187) = (   0.7000163   0.4041216   0.1641635  )
       188           Si  tau( 188) = (   0.7000436   0.7505670   0.1642113  )
       189           Si  tau( 189) = (   0.8999952   0.0577193   0.1641504  )
       190           Si  tau( 190) = (   0.8999953   0.4041175   0.1641536  )
       191           Si  tau( 191) = (   0.8999952   0.7505465   0.1641772  )
       192           Si  tau( 192) = (   0.0000018   0.2309163   0.1641506  )
       193           Si  tau( 193) = (  -0.0000252   0.5773355   0.1641485  )
       194           Si  tau( 194) = (  -0.0000038   0.9237511   0.1641658  )
       195           Si  tau( 195) = (   0.2000012   0.2309006   0.1641430  )
       196           Si  tau( 196) = (   0.1999747   0.5773511   0.1642277  )
       197           Si  tau( 197) = (   0.1999866   0.9237597   0.1641428  )
       198           Si  tau( 198) = (   0.3999951   0.2308760   0.1642149  )
       199           Si  tau( 199) = (   0.3999949   0.5773314   0.1642404  )
       200           Si  tau( 200) = (   0.3999947   0.9237534   0.1641682  )
       201           Si  tau( 201) = (   0.6000086   0.2308959   0.1641451  )
       202           Si  tau( 202) = (   0.6000351   0.5773461   0.1642296  )
       203           Si  tau( 203) = (   0.6000224   0.9237546   0.1641448  )
       204           Si  tau( 204) = (   0.7999960   0.2309239   0.1641467  )
       205           Si  tau( 205) = (   0.8000232   0.5773433   0.1641444  )
       206           Si  tau( 206) = (   0.8000014   0.9237586   0.1641618  )
       207           Si  tau( 207) = (   0.5000073   0.1731302   0.0004400  )
       208           Si  tau( 208) = (   0.5000583   0.5195997   0.0007473  )
       209           Si  tau( 209) = (   0.5000809   0.8660791   0.0004651  )
       210           Si  tau( 210) = (   0.6999991   0.1732087   0.0003782  )
       211           Si  tau( 211) = (   0.7000847   0.5196913   0.0004652  )
       212           Si  tau( 212) = (   0.7000682   0.8661040   0.0004484  )
       213           Si  tau( 213) = (   0.8999952   0.1732348   0.0003893  )
       214           Si  tau( 214) = (   0.8999951   0.5196576   0.0003833  )
       215           Si  tau( 215) = (   0.8999951   0.8660916   0.0004341  )
       216           Si  tau( 216) = (  -0.0000094   0.0000455   0.0004056  )
       217           Si  tau( 217) = (   0.0000085   0.3464322   0.0003788  )
       218           Si  tau( 218) = (  -0.0000547   0.6928920   0.0004582  )
       219           Si  tau( 219) = (   0.1999886   0.0000016   0.0003921  )
       220           Si  tau( 220) = (   0.2000057   0.3463362   0.0004640  )
       221           Si  tau( 221) = (   0.1998288   0.6929524   0.0006451  )
       222           Si  tau( 222) = (   0.3999949  -0.0000269   0.0003928  )
       223           Si  tau( 223) = (   0.3999947   0.3462211   0.0006406  )
       224           Si  tau( 224) = (   0.3999952   0.6929039   0.0007451  )
       225           Si  tau( 225) = (   0.6000206  -0.0000015   0.0003943  )
       226           Si  tau( 226) = (   0.6000034   0.3463341   0.0004660  )
       227           Si  tau( 227) = (   0.6001804   0.6929497   0.0006469  )
       228           Si  tau( 228) = (   0.8000070   0.0000497   0.0004018  )
       229           Si  tau( 229) = (   0.7999892   0.3464368   0.0003745  )
       230           Si  tau( 230) = (   0.8000521   0.6928962   0.0004543  )
       231           Si  tau( 231) = (   0.1000106   0.1732058   0.0003813  )
       232           Si  tau( 232) = (   0.0999246   0.5196886   0.0004686  )
       233           Si  tau( 233) = (   0.0999410   0.8661015   0.0004513  )
       234           Si  tau( 234) = (   0.2999898   0.1731344   0.0004365  )
       235           Si  tau( 235) = (   0.2999376   0.5196032   0.0007439  )
       236           Si  tau( 236) = (   0.2999154   0.8660840   0.0004618  )
       237           C   tau( 237) = (   0.0000121   0.1155502   1.2694663  )
       238           C   tau( 238) = (   0.0000365   0.4619598   1.2694042  )
       239           C   tau( 239) = (  -0.0000086   0.8083524   1.2695171  )
       240           C   tau( 240) = (   0.2000173   0.1154783   1.2694539  )
       241           C   tau( 241) = (   0.2000703   0.4619617   1.2694836  )
       242           C   tau( 242) = (   0.1999838   0.8083458   1.2695250  )
       243           C   tau( 243) = (   0.3999906   0.1154614   1.2694750  )
       244           C   tau( 244) = (   0.3999906   0.4618758   1.2699235  )
       245           C   tau( 245) = (   0.3999898   0.8082358   1.2694805  )
       246           C   tau( 246) = (   0.5999986   0.1154803   1.2694609  )
       247           C   tau( 247) = (   0.5999437   0.4619651   1.2694903  )
       248           C   tau( 248) = (   0.6000315   0.8083478   1.2695314  )
       249           C   tau( 249) = (   0.7999834   0.1155468   1.2694548  )
       250           C   tau( 250) = (   0.7999589   0.4619567   1.2693914  )
       251           C   tau( 251) = (   0.8000036   0.8083490   1.2695059  )
       252           C   tau( 252) = (   0.1000646   0.2887538   1.2694040  )
       253           C   tau( 253) = (   0.0999921   0.6351472   1.2695318  )
       254           C   tau( 254) = (   0.1000026   0.9815472   1.2694872  )
       255           C   tau( 255) = (   0.2999975   0.2886847   1.2695137  )
       256           C   tau( 256) = (   0.2999522   0.6351513   1.2699246  )
       257           C   tau( 257) = (   0.2999992   0.9814617   1.2694055  )
       258           C   tau( 258) = (   0.4999969   0.2886881   1.2695250  )
       259           C   tau( 259) = (   0.5000437   0.6351546   1.2699319  )
       260           C   tau( 260) = (   0.4999951   0.9814640   1.2694167  )
       261           C   tau( 261) = (   0.6999518   0.2887527   1.2693960  )
       262           C   tau( 262) = (   0.7000234   0.6351456   1.2695241  )
       263           C   tau( 263) = (   0.7000135   0.9815450   1.2694800  )
       264           C   tau( 264) = (   0.8999908   0.2887631   1.2694376  )
       265           C   tau( 265) = (   0.8999908   0.6351420   1.2694836  )
       266           C   tau( 266) = (   0.8999910   0.9815670   1.2694897  )
       267           C   tau( 267) = (   0.0000329   0.0000450   1.1053616  )
       268           C   tau( 268) = (   0.0000893   0.3464859   1.1052665  )
       269           C   tau( 269) = (   0.0000062   0.6928548   1.1053956  )
       270           C   tau( 270) = (   0.2000608  -0.0001380   1.1053309  )
       271           C   tau( 271) = (   0.2002513   0.3466122   1.1052829  )
       272           C   tau( 272) = (   0.2000063   0.6928219   1.1055888  )
       273           C   tau( 273) = (   0.3999891  -0.0001562   1.1052830  )
       274           C   tau( 274) = (   0.3999874   0.3464004   1.1055729  )
       275           C   tau( 275) = (   0.3999899   0.6920308   1.1061444  )
       276           C   tau( 276) = (   0.5999560  -0.0001381   1.1053391  )
       277           C   tau( 277) = (   0.5997584   0.3466168   1.1052899  )
       278           C   tau( 278) = (   0.6000073   0.6928217   1.1055937  )
       279           C   tau( 279) = (   0.7999621   0.0000431   1.1053506  )
       280           C   tau( 280) = (   0.7999048   0.3464847   1.1052548  )
       281           C   tau( 281) = (   0.7999875   0.6928530   1.1053841  )
       282           C   tau( 282) = (   0.1001258   0.1732591   1.1053287  )
       283           C   tau( 283) = (   0.1002649   0.5197315   1.1053250  )
       284           C   tau( 284) = (   0.1000034   0.8660063   1.1053843  )
       285           C   tau( 285) = (   0.3000306   0.1731573   1.1053462  )
       286           C   tau( 286) = (   0.3006125   0.5199770   1.1061506  )
       287           C   tau( 287) = (   0.3000467   0.8656826   1.1052869  )
       288           C   tau( 288) = (   0.4999610   0.1731592   1.1053582  )
       289           C   tau( 289) = (   0.4993670   0.5199773   1.1061570  )
       290           C   tau( 290) = (   0.4999437   0.8656812   1.1052968  )
       291           C   tau( 291) = (   0.6998924   0.1732596   1.1053215  )
       292           C   tau( 292) = (   0.6997508   0.5197320   1.1053165  )
       293           C   tau( 293) = (   0.7000131   0.8660043   1.1053766  )
       294           C   tau( 294) = (   0.8999896   0.1732593   1.1053302  )
       295           C   tau( 295) = (   0.8999893   0.5196658   1.1053386  )
       296           C   tau( 296) = (   0.8999894   0.8660589   1.1053688  )
       297           C   tau( 297) = (   0.1003316   0.0576581   0.9420997  )
       298           C   tau( 298) = (   0.1004014   0.4043463   0.9420094  )
       299           C   tau( 299) = (   0.1001221   0.7504507   0.9420966  )
       300           C   tau( 300) = (   0.3000578   0.0575594   0.9420479  )
       301           C   tau( 301) = (   0.3017188   0.4057054   0.9419138  )
       302           C   tau( 302) = (   0.3005329   0.7481893   0.9419163  )
       303           C   tau( 303) = (   0.4999358   0.0575558   0.9420595  )
       304           C   tau( 304) = (   0.4982575   0.4056999   0.9419119  )
       305           C   tau( 305) = (   0.4994483   0.7481840   0.9419190  )
       306           C   tau( 306) = (   0.6996859   0.0576606   0.9420955  )
       307           C   tau( 307) = (   0.6996105   0.4043503   0.9420045  )
       308           C   tau( 308) = (   0.6998891   0.7504480   0.9420901  )
       309           C   tau( 309) = (   0.8999910   0.0577632   0.9420839  )
       310           C   tau( 310) = (   0.8999905   0.4041531   0.9420403  )
       311           C   tau( 311) = (   0.8999902   0.7505257   0.9420926  )
       312           C   tau( 312) = (   0.0001494   0.2309815   0.9420672  )
       313           C   tau( 313) = (   0.0004867   0.5775005   0.9420853  )
       314           C   tau( 314) = (   0.0000751   0.9237515   0.9420928  )
       315           C   tau( 315) = (   0.2005217   0.2314534   0.9420691  )
       316           C   tau( 316) = (   0.2021078   0.5781063   0.9418993  )
       317           C   tau( 317) = (   0.2002958   0.9229959   0.9420832  )
       318           C   tau( 318) = (   0.3999872   0.2310075   0.9420777  )
       319           C   tau( 319) = (   0.3999896   0.9232051   0.9420017  )
       320           C   tau( 320) = (   0.5994825   0.2314549   0.9420785  )
       321           C   tau( 321) = (   0.5978712   0.5781042   0.9419039  )
       322           C   tau( 322) = (   0.5997132   0.9229897   0.9420915  )
       323           C   tau( 323) = (   0.7998460   0.2309860   0.9420559  )
       324           C   tau( 324) = (   0.7995124   0.5775025   0.9420739  )
       325           C   tau( 325) = (   0.7999193   0.9237534   0.9420816  )
       326           C   tau( 326) = (   0.2001427   0.3458399   0.7782929  )
       327           C   tau( 327) = (   0.1996949   0.6930116   0.7778916  )
       328           C   tau( 328) = (   0.3999912  -0.0002722   0.7780495  )
       329           C   tau( 329) = (   0.3999879   0.3460683   0.7778963  )
       330           C   tau( 330) = (   0.6001370   0.0000359   0.7780307  )
       331           C   tau( 331) = (  -0.0000456   0.0000001   0.7780092  )
       332           C   tau( 332) = (   0.5998716   0.3458331   0.7782985  )
       333           C   tau( 333) = (   0.6003188   0.6930120   0.7778953  )
       334           C   tau( 334) = (   0.8000390   0.0000019   0.7779983  )
       335           C   tau( 335) = (   0.7998933   0.3465294   0.7780565  )
       336           C   tau( 336) = (   0.8000801   0.6929929   0.7779937  )
       337           C   tau( 337) = (   0.0999896   0.1730620   0.7780575  )
       338           C   tau( 338) = (   0.0996287   0.5199972   0.7782688  )
       339           C   tau( 339) = (   0.0998650   0.8660692   0.7780000  )
       340           C   tau( 340) = (   0.3000435   0.1729655   0.7780031  )
       341           C   tau( 341) = (   0.0001030   0.3465281   0.7780672  )
       342           C   tau( 342) = (   0.2994798   0.8661528   0.7782727  )
       343           C   tau( 343) = (   0.4999484   0.1729615   0.7780143  )
       344           C   tau( 344) = (   0.5005251   0.8661463   0.7782814  )
       345           C   tau( 345) = (   0.7000263   0.1730637   0.7780522  )
       346           C   tau( 346) = (   0.7003867   0.5199951   0.7782625  )
       347           C   tau( 347) = (   0.7001528   0.8660698   0.7779919  )
       348           C   tau( 348) = (   0.8999897   0.1733043   0.7780146  )
       349           C   tau( 349) = (   0.8999909   0.5197129   0.7780435  )
       350           C   tau( 350) = (   0.8999895   0.8660827   0.7779906  )
       351           C   tau( 351) = (  -0.0000911   0.6929930   0.7780047  )
       352           C   tau( 352) = (   0.1998825   0.0000382   0.7780229  )
       353           C   tau( 353) = (   0.0000265   0.1155516   0.6147226  )
       354           C   tau( 354) = (   0.0000415   0.4620369   0.6147664  )
       355           C   tau( 355) = (  -0.0000027   0.8083456   0.6146763  )
       356           C   tau( 356) = (   0.2000308   0.1154693   0.6147108  )
       357           C   tau( 357) = (   0.1998504   0.4618282   0.6138506  )
       358           C   tau( 358) = (   0.2000016   0.8082833   0.6146487  )
       359           C   tau( 359) = (   0.3999909   0.1154047   0.6147167  )
       360           C   tau( 360) = (   0.3999904   0.4619246   0.6142165  )
       361           C   tau( 361) = (   0.3999885   0.8084992   0.6138685  )
       362           C   tau( 362) = (   0.5999848   0.1154712   0.6147178  )
       363           C   tau( 363) = (   0.6001780   0.4618277   0.6138510  )
       364           C   tau( 364) = (   0.6000150   0.8082844   0.6146535  )
       365           C   tau( 365) = (   0.7999693   0.1155481   0.6147123  )
       366           C   tau( 366) = (   0.7999574   0.4620332   0.6147572  )
       367           C   tau( 367) = (   0.7999978   0.8083419   0.6146653  )
       368           C   tau( 368) = (   0.1001145   0.2887401   0.6147770  )
       369           C   tau( 369) = (   0.1000416   0.6351595   0.6146565  )
       370           C   tau( 370) = (   0.1000079   0.9815207   0.6146972  )
       371           C   tau( 371) = (   0.3000385   0.2887192   0.6146618  )
       372           C   tau( 372) = (   0.2999597   0.6351235   0.6141776  )
       373           C   tau( 373) = (   0.2999544   0.9814057   0.6147580  )
       374           C   tau( 374) = (   0.4999543   0.2887231   0.6146726  )
       375           C   tau( 375) = (   0.5000313   0.6351302   0.6141896  )
       376           C   tau( 376) = (   0.5000421   0.9814076   0.6147677  )
       377           C   tau( 377) = (   0.6999027   0.2887374   0.6147719  )
       378           C   tau( 378) = (   0.6999749   0.6351563   0.6146492  )
       379           C   tau( 379) = (   0.7000082   0.9815185   0.6146900  )
       380           C   tau( 380) = (   0.8999916   0.2888193   0.6147603  )
       381           C   tau( 381) = (   0.8999909   0.6351655   0.6147075  )
       382           C   tau( 382) = (   0.8999908   0.9815588   0.6146898  )
       383           C   tau( 383) = (   0.0000086   0.0000128   0.4505628  )
       384           C   tau( 384) = (   0.0000346   0.3464383   0.4505951  )
       385           C   tau( 385) = (   0.0000036   0.6928119   0.4505487  )
       386           C   tau( 386) = (   0.2000276  -0.0000229   0.4505665  )
       387           C   tau( 387) = (   0.2000311   0.3463125   0.4503171  )
       388           C   tau( 388) = (   0.1999851   0.6928271   0.4504099  )
       389           C   tau( 389) = (   0.3999899  -0.0000629   0.4505942  )
       390           C   tau( 390) = (   0.3999892   0.3463881   0.4504303  )
       391           C   tau( 391) = (   0.3999882   0.6928265   0.4502896  )
       392           C   tau( 392) = (   0.5999905  -0.0000219   0.4505738  )
       393           C   tau( 393) = (   0.5999880   0.3463127   0.4503244  )
       394           C   tau( 394) = (   0.6000339   0.6928276   0.4504174  )
       395           C   tau( 395) = (   0.7999860   0.0000113   0.4505516  )
       396           C   tau( 396) = (   0.7999610   0.3464366   0.4505843  )
       397           C   tau( 397) = (   0.7999910   0.6928103   0.4505374  )
       398           C   tau( 398) = (   0.1000287   0.1732280   0.4505764  )
       399           C   tau( 399) = (   0.0999402   0.5196750   0.4503308  )
       400           C   tau( 400) = (   0.1000207   0.8660181   0.4505418  )
       401           C   tau( 401) = (   0.3000018   0.1731952   0.4505488  )
       402           C   tau( 402) = (   0.2999738   0.5195956   0.4502746  )
       403           C   tau( 403) = (   0.2999088   0.8660381   0.4503274  )
       404           C   tau( 404) = (   0.4999925   0.1731968   0.4505598  )
       405           C   tau( 405) = (   0.5000203   0.5195972   0.4502859  )
       406           C   tau( 406) = (   0.5000868   0.8660393   0.4503378  )
       407           C   tau( 407) = (   0.6999897   0.1732269   0.4505692  )
       408           C   tau( 408) = (   0.7000795   0.5196737   0.4503219  )
       409           C   tau( 409) = (   0.6999983   0.8660172   0.4505338  )
       410           C   tau( 410) = (   0.8999898   0.1732333   0.4505725  )
       411           C   tau( 411) = (   0.8999900   0.5196039   0.4505819  )
       412           C   tau( 412) = (   0.8999898   0.8660269   0.4505464  )
       413           C   tau( 413) = (   0.1000230   0.0576934   0.2872543  )
       414           C   tau( 414) = (   0.1000162   0.4040992   0.2872042  )
       415           C   tau( 415) = (   0.0999993   0.7505099   0.2872359  )
       416           C   tau( 416) = (   0.3000051   0.0576813   0.2872485  )
       417           C   tau( 417) = (   0.3000006   0.4040880   0.2871822  )
       418           C   tau( 418) = (   0.2999853   0.7505055   0.2871833  )
       419           C   tau( 419) = (   0.4999900   0.0576778   0.2872595  )
       420           C   tau( 420) = (   0.4999944   0.4040845   0.2871936  )
       421           C   tau( 421) = (   0.5000098   0.7505018   0.2871947  )
       422           C   tau( 422) = (   0.6999935   0.0576956   0.2872472  )
       423           C   tau( 423) = (   0.7000005   0.4041011   0.2871970  )
       424           C   tau( 424) = (   0.7000170   0.7505119   0.2872287  )
       425           C   tau( 425) = (   0.8999909   0.0576930   0.2872542  )
       426           C   tau( 426) = (   0.8999909   0.4040911   0.2872519  )
       427           C   tau( 427) = (   0.8999910   0.7505050   0.2872505  )
       428           C   tau( 428) = (   0.0000060   0.2309011   0.2872564  )
       429           C   tau( 429) = (  -0.0000254   0.5773052   0.2871853  )
       430           C   tau( 430) = (   0.0000047   0.9237126   0.2872558  )
       431           C   tau( 431) = (   0.2000112   0.2308721   0.2871744  )
       432           C   tau( 432) = (   0.2000008   0.5773118   0.2871823  )
       433           C   tau( 433) = (   0.1999923   0.9237208   0.2871769  )
       434           C   tau( 434) = (   0.3999909   0.2308818   0.2872405  )
       435           C   tau( 435) = (   0.3999903   0.5772995   0.2871383  )
       436           C   tau( 436) = (   0.3999908   0.9237005   0.2872073  )
       437           C   tau( 437) = (   0.6000054   0.2308699   0.2871813  )
       438           C   tau( 438) = (   0.6000157   0.5773094   0.2871892  )
       439           C   tau( 439) = (   0.6000244   0.9237186   0.2871837  )
       440           C   tau( 440) = (   0.7999895   0.2309045   0.2872453  )
       441           C   tau( 441) = (   0.8000205   0.5773087   0.2871736  )
       442           C   tau( 442) = (   0.7999909   0.9237161   0.2872444  )
       443           C   tau( 443) = (   0.0000033   0.0000072   0.1231169  )
       444           C   tau( 444) = (   0.1999742   0.6928410   0.1231669  )
       445           C   tau( 445) = (   0.3999894  -0.0000162   0.1230799  )
       446           C   tau( 446) = (   0.3999896   0.3463722   0.1231709  )
       447           C   tau( 447) = (   0.3999897   0.6928370   0.1231848  )
       448           C   tau( 448) = (   0.5999955  -0.0000050   0.1230851  )
       449           C   tau( 449) = (   0.6000052   0.3464261   0.1230893  )
       450           C   tau( 450) = (   0.6000438   0.6928399   0.1231739  )
       451           C   tau( 451) = (   0.7999912   0.0000088   0.1231055  )
       452           C   tau( 452) = (   0.7999839   0.3464156   0.1230640  )
       453           C   tau( 453) = (   0.7999966   0.6928243   0.1231039  )
       454           C   tau( 454) = (   0.0000109   0.3464140   0.1230757  )
       455           C   tau( 455) = (   0.1000147   0.1732165   0.1230790  )
       456           C   tau( 456) = (   0.1000256   0.5196103   0.1230880  )
       457           C   tau( 457) = (   0.1000078   0.8660251   0.1231137  )
       458           C   tau( 458) = (   0.2999999   0.1731997   0.1230979  )
       459           C   tau( 459) = (   0.2999777   0.5196061   0.1231792  )
       460           C   tau( 460) = (   0.3000087   0.8660107   0.1230802  )
       461           C   tau( 461) = (   0.4999944   0.1731981   0.1231092  )
       462           C   tau( 462) = (   0.5000165   0.5196048   0.1231904  )
       463           C   tau( 463) = (   0.4999844   0.8660087   0.1230912  )
       464           C   tau( 464) = (   0.7000040   0.1732176   0.1230710  )
       465           C   tau( 465) = (   0.6999935   0.5196113   0.1230799  )
       466           C   tau( 466) = (  -0.0000022   0.6928226   0.1231154  )
       467           C   tau( 467) = (   0.7000103   0.8660260   0.1231058  )
       468           C   tau( 468) = (   0.8999897   0.1732117   0.1231049  )
       469           C   tau( 469) = (   0.8999896   0.5195939   0.1230547  )
       470           C   tau( 470) = (   0.8999897   0.8660304   0.1231272  )
       471           C   tau( 471) = (   0.2000226  -0.0000038   0.1230775  )
       472           C   tau( 472) = (   0.2000134   0.3464266   0.1230819  )
       473           SI  tau( 473) = (   0.5001081   0.5196209   0.9846913  )
       474           SI  tau( 474) = (   0.3999909   0.6928061   0.9847128  )
       475           SI  tau( 475) = (   0.2998755   0.5196262   0.9846864  )
       476           c   tau( 476) = (   0.3999699   0.7012017   0.7744636  )
       477           c   tau( 477) = (   0.5070788   0.5155705   0.7745865  )
       478           c   tau( 478) = (   0.2929707   0.5155856   0.7746015  )

   Crystallographic axes

     site n.     atom                  positions (cryst. coord.)
         1           Si  tau(   1) = (  0.0000169  0.1111720  0.8752760  )
         2           Si  tau(   2) = ( -0.0000192  0.4444423  0.8752669  )
         3           Si  tau(   3) = ( -0.0000445  0.7778534  0.8753415  )
         4           Si  tau(   4) = (  0.2000365  0.1110478  0.8752841  )
         5           Si  tau(   5) = (  0.1996800  0.4442658  0.8754356  )
         6           Si  tau(   6) = (  0.1998412  0.7778617  0.8754149  )
         7           Si  tau(   7) = (  0.3999943  0.1110307  0.8753020  )
         8           Si  tau(   8) = (  0.3999900  0.4439631  0.8760811  )
         9           Si  tau(   9) = (  0.3999934  0.7781271  0.8754215  )
        10           Si  tau(  10) = (  0.5999721  0.1110526  0.8752858  )
        11           Si  tau(  11) = (  0.6003227  0.4442733  0.8754367  )
        12           Si  tau(  12) = (  0.6001656  0.7778651  0.8754161  )
        13           Si  tau(  13) = (  0.7999807  0.1111652  0.8752729  )
        14           Si  tau(  14) = (  0.8000155  0.4444357  0.8752625  )
        15           Si  tau(  15) = (  0.8000415  0.7778460  0.8753385  )
        16           Si  tau(  16) = (  0.1000136  0.2777862  0.8752535  )
        17           Si  tau(  17) = (  0.0998666  0.6112358  0.8754181  )
        18           Si  tau(  18) = (  0.0999763  0.9444752  0.8753075  )
        19           Si  tau(  19) = (  0.3000204  0.2776091  0.8753977  )
        20           Si  tau(  20) = (  0.2995506  0.6113500  0.8760937  )
        21           Si  tau(  21) = (  0.3000088  0.9444256  0.8752633  )
        22           Si  tau(  22) = (  0.4999724  0.2776170  0.8754011  )
        23           Si  tau(  23) = (  0.5004438  0.6113561  0.8760948  )
        24           Si  tau(  24) = (  0.4999872  0.9444313  0.8752658  )
        25           Si  tau(  25) = (  0.6999927  0.2777842  0.8752505  )
        26           Si  tau(  26) = (  0.7001410  0.6112323  0.8754154  )
        27           Si  tau(  27) = (  0.7000329  0.9444702  0.8753056  )
        28           Si  tau(  28) = (  0.8999949  0.2778129  0.8752509  )
        29           Si  tau(  29) = (  0.8999950  0.6111820  0.8753202  )
        30           Si  tau(  30) = (  0.8999955  0.9445177  0.8752954  )
        31           Si  tau(  31) = (  0.0000681  0.0000633  0.7502361  )
        32           Si  tau(  32) = (  0.0001288  0.3333873  0.7501569  )
        33           Si  tau(  33) = (  0.0000255  0.6667825  0.7502713  )
        34           Si  tau(  34) = (  0.2002284 -0.0002878  0.7502309  )
        35           Si  tau(  35) = (  0.2002243  0.3340041  0.7502540  )
        36           Si  tau(  36) = (  0.1997611  0.6668165  0.7505110  )
        37           Si  tau(  37) = (  0.3999945 -0.0001990  0.7501633  )
        38           Si  tau(  38) = (  0.3999886  0.3330807  0.7504767  )
        39           Si  tau(  39) = (  0.5997802 -0.0002865  0.7502332  )
        40           Si  tau(  40) = (  0.5997753  0.3340100  0.7502543  )
        41           Si  tau(  41) = (  0.6002354  0.6668193  0.7505105  )
        42           Si  tau(  42) = (  0.7999303  0.0000587  0.7502339  )
        43           Si  tau(  43) = (  0.7998670  0.3333850  0.7501543  )
        44           Si  tau(  44) = (  0.7999714  0.6667776  0.7502685  )
        45           Si  tau(  45) = (  0.1002582  0.1668632  0.7502311  )
        46           Si  tau(  46) = (  0.1005907  0.4997394  0.7503098  )
        47           Si  tau(  47) = (  0.0999849  0.8332422  0.7502534  )
        48           Si  tau(  48) = (  0.3001087  0.1665985  0.7502207  )
        49           Si  tau(  49) = (  0.3005248  0.8328055  0.7502615  )
        50           Si  tau(  50) = (  0.4998820  0.1666028  0.7502246  )
        51           Si  tau(  51) = (  0.4994664  0.8328066  0.7502630  )
        52           Si  tau(  52) = (  0.6997475  0.1668636  0.7502292  )
        53           Si  tau(  53) = (  0.6994080  0.4997428  0.7503054  )
        54           Si  tau(  54) = (  0.7000215  0.8332376  0.7502515  )
        55           Si  tau(  55) = (  0.8999948  0.1667396  0.7502059  )
        56           Si  tau(  56) = (  0.8999962  0.4998748  0.7502784  )
        57           Si  tau(  57) = (  0.8999951  0.8333804  0.7502296  )
        58           Si  tau(  58) = (  0.1000095  0.0554959  0.6252042  )
        59           Si  tau(  59) = (  0.1004743  0.3891282  0.6249693  )
        60           Si  tau(  60) = (  0.1001167  0.7221503  0.6250610  )
        61           Si  tau(  61) = (  0.3000299  0.0553818  0.6251450  )
        62           Si  tau(  62) = (  0.3011191  0.3903083  0.6245901  )
        63           Si  tau(  63) = (  0.3006166  0.7205698  0.6246187  )
        64           Si  tau(  64) = (  0.4999688  0.0553738  0.6251480  )
        65           Si  tau(  65) = (  0.4988776  0.3902980  0.6245870  )
        66           Si  tau(  66) = (  0.4993602  0.7205521  0.6246148  )
        67           Si  tau(  67) = (  0.6999999  0.0555007  0.6252036  )
        68           Si  tau(  68) = (  0.6995322  0.3891292  0.6249678  )
        69           Si  tau(  69) = (  0.6998885  0.7221557  0.6250592  )
        70           Si  tau(  70) = (  0.8999950  0.0555987  0.6252099  )
        71           Si  tau(  71) = (  0.8999960  0.3889693  0.6251324  )
        72           Si  tau(  72) = (  0.8999934  0.7222664  0.6251698  )
        73           Si  tau(  73) = (  0.0000905  0.2223014  0.6251740  )
        74           Si  tau(  74) = (  0.0000429  0.5557019  0.6250913  )
        75           Si  tau(  75) = ( -0.0000199  0.8888788  0.6251926  )
        76           Si  tau(  76) = (  0.2001099  0.2221256  0.6251035  )
        77           Si  tau(  77) = (  0.2019084  0.5558391  0.6245957  )
        78           Si  tau(  78) = (  0.1999198  0.8888051  0.6251127  )
        79           Si  tau(  79) = (  0.3999944  0.2223012  0.6250414  )
        80           Si  tau(  80) = (  0.3999998  0.8882973  0.6249733  )
        81           Si  tau(  81) = (  0.5998953  0.2221193  0.6251061  )
        82           Si  tau(  82) = (  0.5981134  0.5558405  0.6245979  )
        83           Si  tau(  83) = (  0.6000920  0.8887982  0.6251152  )
        84           Si  tau(  84) = (  0.7999071  0.2223086  0.6251713  )
        85           Si  tau(  85) = (  0.7999557  0.5557069  0.6250881  )
        86           Si  tau(  86) = (  0.8000172  0.8888859  0.6251896  )
        87           Si  tau(  87) = (  0.4999550  0.1667526  0.5002392  )
        88           Si  tau(  88) = (  0.4992614  0.5004357  0.5007846  )
        89           Si  tau(  89) = (  0.4997809  0.8329801  0.5003484  )
        90           Si  tau(  90) = (  0.6999135  0.1667502  0.5002788  )
        91           Si  tau(  91) = (  0.6995900  0.5000071  0.5003275  )
        92           Si  tau(  92) = (  0.6999099  0.8332695  0.5002313  )
        93           Si  tau(  93) = (  0.8999955  0.1667675  0.5002532  )
        94           Si  tau(  94) = (  0.8999970  0.5000453  0.5002645  )
        95           Si  tau(  95) = (  0.8999951  0.8333269  0.5002330  )
        96           Si  tau(  96) = (  0.0000293  0.0000288  0.5002503  )
        97           Si  tau(  97) = (  0.0001301  0.3334698  0.5002721  )
        98           Si  tau(  98) = (  0.0000949  0.6666430  0.5002280  )
        99           Si  tau(  99) = (  0.2000561 -0.0000530  0.5002655  )
       100           Si  tau( 100) = (  0.2002185  0.3337226  0.5003604  )
       101           Si  tau( 101) = (  0.2003184  0.6665026  0.5002119  )
       102           Si  tau( 102) = (  0.3999960 -0.0001560  0.5002622  )
       103           Si  tau( 103) = (  0.3999935  0.3337276  0.5002281  )
       104           Si  tau( 104) = (  0.3999895  0.6658015  0.5006713  )
       105           Si  tau( 105) = (  0.5999536 -0.0000561  0.5002673  )
       106           Si  tau( 106) = (  0.5997909  0.3337187  0.5003611  )
       107           Si  tau( 107) = (  0.5996907  0.6664999  0.5002118  )
       108           Si  tau( 108) = (  0.7999681  0.0000328  0.5002478  )
       109           Si  tau( 109) = (  0.7998690  0.3334736  0.5002700  )
       110           Si  tau( 110) = (  0.7999022  0.6666468  0.5002253  )
       111           Si  tau( 111) = (  0.1000959  0.1667480  0.5002796  )
       112           Si  tau( 112) = (  0.1004230  0.5000048  0.5003292  )
       113           Si  tau( 113) = (  0.1000993  0.8332672  0.5002337  )
       114           Si  tau( 114) = (  0.3000418  0.1667568  0.5002366  )
       115           Si  tau( 115) = (  0.3007429  0.5004410  0.5007934  )
       116           Si  tau( 116) = (  0.3002167  0.8329858  0.5003472  )
       117           Si  tau( 117) = (  0.0000288  0.1111650  0.3753225  )
       118           Si  tau( 118) = (  0.0000815  0.4445349  0.3753704  )
       119           Si  tau( 119) = (  0.0000248  0.7777762  0.3753062  )
       120           Si  tau( 120) = (  0.2000345  0.1111173  0.3753301  )
       121           Si  tau( 121) = (  0.1999666  0.4444297  0.3751650  )
       122           Si  tau( 122) = (  0.2000662  0.7777185  0.3753212  )
       123           Si  tau( 123) = (  0.3999952  0.1110907  0.3753354  )
       124           Si  tau( 124) = (  0.3999945  0.4445192  0.3753558  )
       125           Si  tau( 125) = (  0.3999951  0.7778175  0.3751594  )
       126           Si  tau( 126) = (  0.5999750  0.1111219  0.3753318  )
       127           Si  tau( 127) = (  0.6000454  0.4444335  0.3751645  )
       128           Si  tau( 128) = (  0.5999442  0.7777229  0.3753221  )
       129           Si  tau( 129) = (  0.7999689  0.1111578  0.3753199  )
       130           Si  tau( 130) = (  0.7999171  0.4445275  0.3753681  )
       131           Si  tau( 131) = (  0.7999731  0.7777689  0.3753033  )
       132           Si  tau( 132) = (  0.1001109  0.2778679  0.3753694  )
       133           Si  tau( 133) = (  0.1000864  0.6111056  0.3753214  )
       134           Si  tau( 134) = (  0.1000323  0.9444334  0.3753153  )
       135           Si  tau( 135) = (  0.3000277  0.2778622  0.3753305  )
       136           Si  tau( 136) = (  0.3000342  0.6110811  0.3753324  )
       137           Si  tau( 137) = (  0.3000076  0.9443282  0.3753668  )
       138           Si  tau( 138) = (  0.4999693  0.2778696  0.3753330  )
       139           Si  tau( 139) = (  0.4999615  0.6110898  0.3753349  )
       140           Si  tau( 140) = (  0.4999904  0.9443352  0.3753690  )
       141           Si  tau( 141) = (  0.6998994  0.2778632  0.3753684  )
       142           Si  tau( 142) = (  0.6999237  0.6111003  0.3753193  )
       143           Si  tau( 143) = (  0.6999774  0.9444289  0.3753133  )
       144           Si  tau( 144) = (  0.8999957  0.2778703  0.3753469  )
       145           Si  tau( 145) = (  0.8999953  0.6111241  0.3753258  )
       146           Si  tau( 146) = (  0.8999952  0.9444609  0.3753034  )
       147           Si  tau( 147) = (  0.0000104 -0.0000183  0.2503207  )
       148           Si  tau( 148) = (  0.0000265  0.3333349  0.2503534  )
       149           Si  tau( 149) = (  0.0000087  0.6666352  0.2503349  )
       150           Si  tau( 150) = (  0.2000212 -0.0000430  0.2503357  )
       151           Si  tau( 151) = (  0.2000310  0.3332805  0.2502867  )
       152           Si  tau( 152) = (  0.2000084  0.6666367  0.2503401  )
       153           Si  tau( 153) = (  0.3999951 -0.0000588  0.2503570  )
       154           Si  tau( 154) = (  0.3999949  0.3333181  0.2503501  )
       155           Si  tau( 155) = (  0.3999947  0.6666178  0.2503422  )
       156           Si  tau( 156) = (  0.5999885 -0.0000405  0.2503373  )
       157           Si  tau( 157) = (  0.5999789  0.3332828  0.2502885  )
       158           Si  tau( 158) = (  0.6000014  0.6666389  0.2503419  )
       159           Si  tau( 159) = (  0.7999873 -0.0000224  0.2503179  )
       160           Si  tau( 160) = (  0.7999713  0.3333307  0.2503507  )
       161           Si  tau( 161) = (  0.7999890  0.6666311  0.2503319  )
       162           Si  tau( 162) = (  0.1000260  0.1666630  0.2503359  )
       163           Si  tau( 163) = (  0.0999918  0.5000120  0.2502913  )
       164           Si  tau( 164) = (  0.1000214  0.8332992  0.2503286  )
       165           Si  tau( 165) = (  0.3000032  0.1666487  0.2503379  )
       166           Si  tau( 166) = (  0.3000159  0.4999821  0.2503403  )
       167           Si  tau( 167) = (  0.2999644  0.8332946  0.2502873  )
       168           Si  tau( 168) = (  0.4999944  0.1666527  0.2503404  )
       169           Si  tau( 169) = (  0.4999812  0.4999864  0.2503428  )
       170           Si  tau( 170) = (  0.5000332  0.8332986  0.2502898  )
       171           Si  tau( 171) = (  0.6999839  0.1666605  0.2503340  )
       172           Si  tau( 172) = (  0.7000185  0.5000093  0.2502891  )
       173           Si  tau( 173) = (  0.6999886  0.8332967  0.2503264  )
       174           Si  tau( 174) = (  0.8999952  0.1666599  0.2503260  )
       175           Si  tau( 175) = (  0.8999951  0.4999810  0.2503491  )
       176           Si  tau( 176) = (  0.8999952  0.8333060  0.2503205  )
       177           Si  tau( 177) = (  0.1000109  0.0555398  0.1253349  )
       178           Si  tau( 178) = (  0.0999939  0.3888616  0.1253497  )
       179           Si  tau( 179) = (  0.0999659  0.7222289  0.1253863  )
       180           Si  tau( 180) = (  0.2999991  0.0555317  0.1253480  )
       181           Si  tau( 181) = (  0.2999948  0.3888432  0.1253969  )
       182           Si  tau( 182) = (  0.2999716  0.7222265  0.1253957  )
       183           Si  tau( 183) = (  0.4999983  0.0555244  0.1253508  )
       184           Si  tau( 184) = (  0.5000027  0.3888359  0.1253997  )
       185           Si  tau( 185) = (  0.5000255  0.7222188  0.1253987  )
       186           Si  tau( 186) = (  0.6999988  0.0555444  0.1253329  )
       187           Si  tau( 187) = (  0.7000163  0.3888662  0.1253477  )
       188           Si  tau( 188) = (  0.7000436  0.7222334  0.1253843  )
       189           Si  tau( 189) = (  0.8999952  0.0555405  0.1253377  )
       190           Si  tau( 190) = (  0.8999953  0.3888623  0.1253401  )
       191           Si  tau( 191) = (  0.8999952  0.7222137  0.1253582  )
       192           Si  tau( 192) = (  0.0000018  0.2221993  0.1253379  )
       193           Si  tau( 193) = ( -0.0000252  0.5555414  0.1253363  )
       194           Si  tau( 194) = ( -0.0000038  0.8888799  0.1253495  )
       195           Si  tau( 195) = (  0.2000012  0.2221842  0.1253320  )
       196           Si  tau( 196) = (  0.1999747  0.5555564  0.1253967  )
       197           Si  tau( 197) = (  0.1999866  0.8888882  0.1253319  )
       198           Si  tau( 198) = (  0.3999951  0.2221605  0.1253870  )
       199           Si  tau( 199) = (  0.3999949  0.5555374  0.1254064  )
       200           Si  tau( 200) = (  0.3999947  0.8888822  0.1253513  )
       201           Si  tau( 201) = (  0.6000086  0.2221797  0.1253336  )
       202           Si  tau( 202) = (  0.6000351  0.5555516  0.1253982  )
       203           Si  tau( 203) = (  0.6000224  0.8888833  0.1253335  )
       204           Si  tau( 204) = (  0.7999960  0.2222067  0.1253349  )
       205           Si  tau( 205) = (  0.8000232  0.5555489  0.1253332  )
       206           Si  tau( 206) = (  0.8000014  0.8888872  0.1253464  )
       207           Si  tau( 207) = (  0.5000073  0.1665947  0.0003360  )
       208           Si  tau( 208) = (  0.5000583  0.4999851  0.0005706  )
       209           Si  tau( 209) = (  0.5000809  0.8333850  0.0003552  )
       210           Si  tau( 210) = (  0.6999991  0.1666701  0.0002887  )
       211           Si  tau( 211) = (  0.7000847  0.5000732  0.0003552  )
       212           Si  tau( 212) = (  0.7000682  0.8334089  0.0003424  )
       213           Si  tau( 213) = (  0.8999952  0.1666952  0.0002973  )
       214           Si  tau( 214) = (  0.8999951  0.5000407  0.0002926  )
       215           Si  tau( 215) = (  0.8999951  0.8333970  0.0003315  )
       216           Si  tau( 216) = ( -0.0000094  0.0000438  0.0003097  )
       217           Si  tau( 217) = (  0.0000085  0.3333545  0.0002893  )
       218           Si  tau( 218) = ( -0.0000547  0.6667356  0.0003498  )
       219           Si  tau( 219) = (  0.1999886  0.0000015  0.0002994  )
       220           Si  tau( 220) = (  0.2000057  0.3332621  0.0003543  )
       221           Si  tau( 221) = (  0.1998288  0.6667938  0.0004926  )
       222           Si  tau( 222) = (  0.3999949 -0.0000259  0.0002999  )
       223           Si  tau( 223) = (  0.3999947  0.3331514  0.0004892  )
       224           Si  tau( 224) = (  0.3999952  0.6667471  0.0005689  )
       225           Si  tau( 225) = (  0.6000206 -0.0000014  0.0003011  )
       226           Si  tau( 226) = (  0.6000034  0.3332602  0.0003558  )
       227           Si  tau( 227) = (  0.6001804  0.6667911  0.0004940  )
       228           Si  tau( 228) = (  0.8000070  0.0000478  0.0003068  )
       229           Si  tau( 229) = (  0.7999892  0.3333590  0.0002859  )
       230           Si  tau( 230) = (  0.8000521  0.6667397  0.0003469  )
       231           Si  tau( 231) = (  0.1000106  0.1666673  0.0002912  )
       232           Si  tau( 232) = (  0.0999246  0.5000706  0.0003578  )
       233           Si  tau( 233) = (  0.0999410  0.8334066  0.0003446  )
       234           Si  tau( 234) = (  0.2999898  0.1665986  0.0003333  )
       235           Si  tau( 235) = (  0.2999376  0.4999884  0.0005680  )
       236           Si  tau( 236) = (  0.2999154  0.8333897  0.0003526  )
       237           C   tau( 237) = (  0.0000121  0.1111882  0.9693063  )
       238           C   tau( 238) = (  0.0000365  0.4445210  0.9692589  )
       239           C   tau( 239) = ( -0.0000086  0.7778374  0.9693451  )
       240           C   tau( 240) = (  0.2000173  0.1111190  0.9692967  )
       241           C   tau( 241) = (  0.2000703  0.4445228  0.9693195  )
       242           C   tau( 242) = (  0.1999838  0.7778312  0.9693510  )
       243           C   tau( 243) = (  0.3999906  0.1111027  0.9693129  )
       244           C   tau( 244) = (  0.3999906  0.4444402  0.9696553  )
       245           C   tau( 245) = (  0.3999898  0.7777253  0.9693171  )
       246           C   tau( 246) = (  0.5999986  0.1111209  0.9693021  )
       247           C   tau( 247) = (  0.5999437  0.4445261  0.9693246  )
       248           C   tau( 248) = (  0.6000315  0.7778330  0.9693559  )
       249           C   tau( 249) = (  0.7999834  0.1111849  0.9692975  )
       250           C   tau( 250) = (  0.7999589  0.4445180  0.9692491  )
       251           C   tau( 251) = (  0.8000036  0.7778342  0.9693365  )
       252           C   tau( 252) = (  0.1000646  0.2778535  0.9692587  )
       253           C   tau( 253) = (  0.0999921  0.6111707  0.9693563  )
       254           C   tau( 254) = (  0.1000026  0.9444943  0.9693222  )
       255           C   tau( 255) = (  0.2999975  0.2777869  0.9693424  )
       256           C   tau( 256) = (  0.2999522  0.6111747  0.9696562  )
       257           C   tau( 257) = (  0.2999992  0.9444120  0.9692599  )
       258           C   tau( 258) = (  0.4999969  0.2777903  0.9693511  )
       259           C   tau( 259) = (  0.5000437  0.6111778  0.9696618  )
       260           C   tau( 260) = (  0.4999951  0.9444142  0.9692684  )
       261           C   tau( 261) = (  0.6999518  0.2778524  0.9692526  )
       262           C   tau( 262) = (  0.7000234  0.6111691  0.9693504  )
       263           C   tau( 263) = (  0.7000135  0.9444921  0.9693167  )
       264           C   tau( 264) = (  0.8999908  0.2778624  0.9692844  )
       265           C   tau( 265) = (  0.8999908  0.6111656  0.9693195  )
       266           C   tau( 266) = (  0.8999910  0.9445133  0.9693241  )
       267           C   tau( 267) = (  0.0000329  0.0000433  0.8440035  )
       268           C   tau( 268) = (  0.0000893  0.3334062  0.8439308  )
       269           C   tau( 269) = (  0.0000062  0.6666998  0.8440294  )
       270           C   tau( 270) = (  0.2000608 -0.0001328  0.8439800  )
       271           C   tau( 271) = (  0.2002513  0.3335277  0.8439433  )
       272           C   tau( 272) = (  0.2000063  0.6666682  0.8441769  )
       273           C   tau( 273) = (  0.3999891 -0.0001503  0.8439434  )
       274           C   tau( 274) = (  0.3999874  0.3333239  0.8441647  )
       275           C   tau( 275) = (  0.3999899  0.6659070  0.8446011  )
       276           C   tau( 276) = (  0.5999560 -0.0001329  0.8439863  )
       277           C   tau( 277) = (  0.5997584  0.3335322  0.8439487  )
       278           C   tau( 278) = (  0.6000073  0.6666680  0.8441806  )
       279           C   tau( 279) = (  0.7999621  0.0000415  0.8439950  )
       280           C   tau( 280) = (  0.7999048  0.3334051  0.8439219  )
       281           C   tau( 281) = (  0.7999875  0.6666981  0.8440206  )
       282           C   tau( 282) = (  0.1001258  0.1667187  0.8439783  )
       283           C   tau( 283) = (  0.1002649  0.5001119  0.8439755  )
       284           C   tau( 284) = (  0.1000034  0.8333150  0.8440207  )
       285           C   tau( 285) = (  0.3000306  0.1666207  0.8439916  )
       286           C   tau( 286) = (  0.3006125  0.5003481  0.8446058  )
       287           C   tau( 287) = (  0.3000467  0.8330035  0.8439464  )
       288           C   tau( 288) = (  0.4999610  0.1666225  0.8440008  )
       289           C   tau( 289) = (  0.4993670  0.5003484  0.8446108  )
       290           C   tau( 290) = (  0.4999437  0.8330021  0.8439540  )
       291           C   tau( 291) = (  0.6998924  0.1667191  0.8439728  )
       292           C   tau( 292) = (  0.6997508  0.5001124  0.8439690  )
       293           C   tau( 293) = (  0.7000131  0.8333130  0.8440148  )
       294           C   tau( 294) = (  0.8999896  0.1667188  0.8439795  )
       295           C   tau( 295) = (  0.8999893  0.5000486  0.8439859  )
       296           C   tau( 296) = (  0.8999894  0.8333655  0.8440089  )
       297           C   tau( 297) = (  0.1003316  0.0554816  0.7193441  )
       298           C   tau( 298) = (  0.1004014  0.3890824  0.7192752  )
       299           C   tau( 299) = (  0.1001221  0.7221215  0.7193418  )
       300           C   tau( 300) = (  0.3000578  0.0553866  0.7193046  )
       301           C   tau( 301) = (  0.3017188  0.3903902  0.7192022  )
       302           C   tau( 302) = (  0.3005329  0.7199455  0.7192041  )
       303           C   tau( 303) = (  0.4999358  0.0553831  0.7193134  )
       304           C   tau( 304) = (  0.4982575  0.3903849  0.7192007  )
       305           C   tau( 305) = (  0.4994483  0.7199404  0.7192062  )
       306           C   tau( 306) = (  0.6996859  0.0554840  0.7193409  )
       307           C   tau( 307) = (  0.6996105  0.3890863  0.7192715  )
       308           C   tau( 308) = (  0.6998891  0.7221189  0.7193368  )
       309           C   tau( 309) = (  0.8999910  0.0555827  0.7193320  )
       310           C   tau( 310) = (  0.8999905  0.3888965  0.7192987  )
       311           C   tau( 311) = (  0.8999902  0.7221937  0.7193387  )
       312           C   tau( 312) = (  0.0001494  0.2222621  0.7193193  )
       313           C   tau( 313) = (  0.0004867  0.5557001  0.7193332  )
       314           C   tau( 314) = (  0.0000751  0.8888803  0.7193388  )
       315           C   tau( 315) = (  0.2005217  0.2227161  0.7193208  )
       316           C   tau( 316) = (  0.2021078  0.5562831  0.7191911  )
       317           C   tau( 317) = (  0.2002958  0.8881532  0.7193316  )
       318           C   tau( 318) = (  0.3999872  0.2222870  0.7193274  )
       319           C   tau( 319) = (  0.3999896  0.8883545  0.7192693  )
       320           C   tau( 320) = (  0.5994825  0.2227176  0.7193279  )
       321           C   tau( 321) = (  0.5978712  0.5562810  0.7191946  )
       322           C   tau( 322) = (  0.5997132  0.8881472  0.7193379  )
       323           C   tau( 323) = (  0.7998460  0.2222664  0.7193107  )
       324           C   tau( 324) = (  0.7995124  0.5557021  0.7193245  )
       325           C   tau( 325) = (  0.7999193  0.8888821  0.7193303  )
       326           C   tau( 326) = (  0.2001427  0.3327846  0.5942688  )
       327           C   tau( 327) = (  0.1996949  0.6668507  0.5939624  )
       328           C   tau( 328) = (  0.3999912 -0.0002619  0.5940830  )
       329           C   tau( 329) = (  0.3999879  0.3330044  0.5939659  )
       330           C   tau( 330) = (  0.6001370  0.0000345  0.5940686  )
       331           C   tau( 331) = ( -0.0000456  0.0000001  0.5940521  )
       332           C   tau( 332) = (  0.5998716  0.3327780  0.5942731  )
       333           C   tau( 333) = (  0.6003188  0.6668511  0.5939652  )
       334           C   tau( 334) = (  0.8000390  0.0000018  0.5940439  )
       335           C   tau( 335) = (  0.7998933  0.3334481  0.5940882  )
       336           C   tau( 336) = (  0.8000801  0.6668327  0.5940403  )
       337           C   tau( 337) = (  0.0999896  0.1665290  0.5940890  )
       338           C   tau( 338) = (  0.0996287  0.5003676  0.5942504  )
       339           C   tau( 339) = (  0.0998650  0.8333754  0.5940452  )
       340           C   tau( 340) = (  0.3000435  0.1664361  0.5940475  )
       341           C   tau( 341) = (  0.0001030  0.3334468  0.5940964  )
       342           C   tau( 342) = (  0.2994798  0.8334560  0.5942534  )
       343           C   tau( 343) = (  0.4999484  0.1664323  0.5940561  )
       344           C   tau( 344) = (  0.5005251  0.8334496  0.5942600  )
       345           C   tau( 345) = (  0.7000263  0.1665307  0.5940850  )
       346           C   tau( 346) = (  0.7003867  0.5003655  0.5942456  )
       347           C   tau( 347) = (  0.7001528  0.8333761  0.5940389  )
       348           C   tau( 348) = (  0.8999897  0.1667622  0.5940563  )
       349           C   tau( 349) = (  0.8999909  0.5000939  0.5940784  )
       350           C   tau( 350) = (  0.8999895  0.8333884  0.5940379  )
       351           C   tau( 351) = ( -0.0000911  0.6668328  0.5940487  )
       352           C   tau( 352) = (  0.1998825  0.0000368  0.5940626  )
       353           C   tau( 353) = (  0.0000265  0.1111896  0.4693740  )
       354           C   tau( 354) = (  0.0000415  0.4445952  0.4694074  )
       355           C   tau( 355) = ( -0.0000027  0.7778309  0.4693386  )
       356           C   tau( 356) = (  0.2000308  0.1111103  0.4693649  )
       357           C   tau( 357) = (  0.1998504  0.4443944  0.4687082  )
       358           C   tau( 358) = (  0.2000016  0.7777710  0.4693176  )
       359           C   tau( 359) = (  0.3999909  0.1110482  0.4693695  )
       360           C   tau( 360) = (  0.3999904  0.4444871  0.4689875  )
       361           C   tau( 361) = (  0.3999885  0.7779787  0.4687218  )
       362           C   tau( 362) = (  0.5999848  0.1111122  0.4693703  )
       363           C   tau( 363) = (  0.6001780  0.4443939  0.4687085  )
       364           C   tau( 364) = (  0.6000150  0.7777720  0.4693212  )
       365           C   tau( 365) = (  0.7999693  0.1111862  0.4693661  )
       366           C   tau( 366) = (  0.7999574  0.4445917  0.4694004  )
       367           C   tau( 367) = (  0.7999978  0.7778274  0.4693302  )
       368           C   tau( 368) = (  0.1001145  0.2778403  0.4694155  )
       369           C   tau( 369) = (  0.1000416  0.6111825  0.4693235  )
       370           C   tau( 370) = (  0.1000079  0.9444687  0.4693546  )
       371           C   tau( 371) = (  0.3000385  0.2778202  0.4693275  )
       372           C   tau( 372) = (  0.2999597  0.6111479  0.4689579  )
       373           C   tau( 373) = (  0.2999544  0.9443581  0.4694010  )
       374           C   tau( 374) = (  0.4999543  0.2778239  0.4693358  )
       375           C   tau( 375) = (  0.5000313  0.6111543  0.4689670  )
       376           C   tau( 376) = (  0.5000421  0.9443599  0.4694084  )
       377           C   tau( 377) = (  0.6999027  0.2778377  0.4694116  )
       378           C   tau( 378) = (  0.6999749  0.6111794  0.4693179  )
       379           C   tau( 379) = (  0.7000082  0.9444666  0.4693491  )
       380           C   tau( 380) = (  0.8999916  0.2779165  0.4694028  )
       381           C   tau( 381) = (  0.8999909  0.6111883  0.4693625  )
       382           C   tau( 382) = (  0.8999908  0.9445054  0.4693490  )
       383           C   tau( 383) = (  0.0000086  0.0000123  0.3440291  )
       384           C   tau( 384) = (  0.0000346  0.3333605  0.3440537  )
       385           C   tau( 385) = (  0.0000036  0.6666586  0.3440183  )
       386           C   tau( 386) = (  0.2000276 -0.0000220  0.3440319  )
       387           C   tau( 387) = (  0.2000311  0.3332394  0.3438415  )
       388           C   tau( 388) = (  0.1999851  0.6666732  0.3439123  )
       389           C   tau( 389) = (  0.3999899 -0.0000605  0.3440530  )
       390           C   tau( 390) = (  0.3999892  0.3333121  0.3439279  )
       391           C   tau( 391) = (  0.3999882  0.6666726  0.3438205  )
       392           C   tau( 392) = (  0.5999905 -0.0000211  0.3440375  )
       393           C   tau( 393) = (  0.5999880  0.3332395  0.3438471  )
       394           C   tau( 394) = (  0.6000339  0.6666737  0.3439180  )
       395           C   tau( 395) = (  0.7999860  0.0000109  0.3440205  )
       396           C   tau( 396) = (  0.7999610  0.3333587  0.3440455  )
       397           C   tau( 397) = (  0.7999910  0.6666570  0.3440097  )
       398           C   tau( 398) = (  0.1000287  0.1666887  0.3440395  )
       399           C   tau( 399) = (  0.0999402  0.5000575  0.3438520  )
       400           C   tau( 400) = (  0.1000207  0.8333263  0.3440130  )
       401           C   tau( 401) = (  0.3000018  0.1666571  0.3440184  )
       402           C   tau( 402) = (  0.2999738  0.4999811  0.3438090  )
       403           C   tau( 403) = (  0.2999088  0.8333456  0.3438493  )
       404           C   tau( 404) = (  0.4999925  0.1666587  0.3440268  )
       405           C   tau( 405) = (  0.5000203  0.4999827  0.3438176  )
       406           C   tau( 406) = (  0.5000868  0.8333467  0.3438573  )
       407           C   tau( 407) = (  0.6999897  0.1666877  0.3440340  )
       408           C   tau( 408) = (  0.7000795  0.5000563  0.3438451  )
       409           C   tau( 409) = (  0.6999983  0.8333254  0.3440069  )
       410           C   tau( 410) = (  0.8999898  0.1666938  0.3440365  )
       411           C   tau( 411) = (  0.8999900  0.4999891  0.3440437  )
       412           C   tau( 412) = (  0.8999898  0.8333348  0.3440165  )
       413           C   tau( 413) = (  0.1000230  0.0555155  0.2193342  )
       414           C   tau( 414) = (  0.1000162  0.3888446  0.2192960  )
       415           C   tau( 415) = (  0.0999993  0.7221785  0.2193202  )
       416           C   tau( 416) = (  0.3000051  0.0555038  0.2193298  )
       417           C   tau( 417) = (  0.3000006  0.3888338  0.2192791  )
       418           C   tau( 418) = (  0.2999853  0.7221743  0.2192800  )
       419           C   tau( 419) = (  0.4999900  0.0555005  0.2193381  )
       420           C   tau( 420) = (  0.4999944  0.3888305  0.2192879  )
       421           C   tau( 421) = (  0.5000098  0.7221707  0.2192887  )
       422           C   tau( 422) = (  0.6999935  0.0555176  0.2193288  )
       423           C   tau( 423) = (  0.7000005  0.3888465  0.2192904  )
       424           C   tau( 424) = (  0.7000170  0.7221805  0.2193146  )
       425           C   tau( 425) = (  0.8999909  0.0555151  0.2193341  )
       426           C   tau( 426) = (  0.8999909  0.3888369  0.2193324  )
       427           C   tau( 427) = (  0.8999910  0.7221738  0.2193313  )
       428           C   tau( 428) = (  0.0000060  0.2221847  0.2193358  )
       429           C   tau( 429) = ( -0.0000254  0.5555122  0.2192816  )
       430           C   tau( 430) = (  0.0000047  0.8888428  0.2193353  )
       431           C   tau( 431) = (  0.2000112  0.2221568  0.2192732  )
       432           C   tau( 432) = (  0.2000008  0.5555185  0.2192792  )
       433           C   tau( 433) = (  0.1999923  0.8888508  0.2192751  )
       434           C   tau( 434) = (  0.3999909  0.2221661  0.2193237  )
       435           C   tau( 435) = (  0.3999903  0.5555067  0.2192456  )
       436           C   tau( 436) = (  0.3999908  0.8888312  0.2192983  )
       437           C   tau( 437) = (  0.6000054  0.2221546  0.2192785  )
       438           C   tau( 438) = (  0.6000157  0.5555162  0.2192845  )
       439           C   tau( 439) = (  0.6000244  0.8888486  0.2192803  )
       440           C   tau( 440) = (  0.7999895  0.2221879  0.2193273  )
       441           C   tau( 441) = (  0.8000205  0.5555156  0.2192726  )
       442           C   tau( 442) = (  0.7999909  0.8888462  0.2193267  )
       443           C   tau( 443) = (  0.0000033  0.0000069  0.0940064  )
       444           C   tau( 444) = (  0.1999742  0.6666866  0.0940446  )
       445           C   tau( 445) = (  0.3999894 -0.0000156  0.0939782  )
       446           C   tau( 446) = (  0.3999896  0.3332968  0.0940476  )
       447           C   tau( 447) = (  0.3999897  0.6666828  0.0940583  )
       448           C   tau( 448) = (  0.5999955 -0.0000048  0.0939821  )
       449           C   tau( 449) = (  0.6000052  0.3333486  0.0939854  )
       450           C   tau( 450) = (  0.6000438  0.6666855  0.0940500  )
       451           C   tau( 451) = (  0.7999912  0.0000084  0.0939977  )
       452           C   tau( 452) = (  0.7999839  0.3333385  0.0939660  )
       453           C   tau( 453) = (  0.7999966  0.6666705  0.0939965  )
       454           C   tau( 454) = (  0.0000109  0.3333370  0.0939749  )
       455           C   tau( 455) = (  0.1000147  0.1666777  0.0939775  )
       456           C   tau( 456) = (  0.1000256  0.4999952  0.0939844  )
       457           C   tau( 457) = (  0.1000078  0.8333330  0.0940039  )
       458           C   tau( 458) = (  0.2999999  0.1666614  0.0939919  )
       459           C   tau( 459) = (  0.2999777  0.4999912  0.0940540  )
       460           C   tau( 460) = (  0.3000087  0.8333192  0.0939784  )
       461           C   tau( 461) = (  0.4999944  0.1666600  0.0940005  )
       462           C   tau( 462) = (  0.5000165  0.4999900  0.0940625  )
       463           C   tau( 463) = (  0.4999844  0.8333172  0.0939868  )
       464           C   tau( 464) = (  0.7000040  0.1666787  0.0939713  )
       465           C   tau( 465) = (  0.6999935  0.4999962  0.0939781  )
       466           C   tau( 466) = ( -0.0000022  0.6666689  0.0940053  )
       467           C   tau( 467) = (  0.7000103  0.8333339  0.0939979  )
       468           C   tau( 468) = (  0.8999897  0.1666730  0.0939973  )
       469           C   tau( 469) = (  0.8999896  0.4999794  0.0939589  )
       470           C   tau( 470) = (  0.8999897  0.8333381  0.0940143  )
       471           C   tau( 471) = (  0.2000226 -0.0000037  0.0939764  )
       472           C   tau( 472) = (  0.2000134  0.3333492  0.0939797  )
       473           SI  tau( 473) = (  0.5001081  0.5000054  0.7518651  )
       474           SI  tau( 474) = (  0.3999909  0.6666530  0.7518815  )
       475           SI  tau( 475) = (  0.2998755  0.5000105  0.7518614  )
       476           c   tau( 476) = (  0.3999699  0.6747317  0.5913449  )
       477           c   tau( 477) = (  0.5070788  0.4961079  0.5914387  )
       478           c   tau( 478) = (  0.2929707  0.4961225  0.5914502  )

     number of k points=     2  Marzari-Vanderbilt smearing, width (Ry)=  0.0010
                       cart. coord. in units 2pi/alat
        k(    1) = (   0.0000000   0.0000000   0.0000000), wk =   1.0000000
        k(    2) = (   0.0000000   0.0000000   0.0000000), wk =   1.0000000

                       cryst. coord.
        k(    1) = (   0.0000000   0.0000000   0.0000000), wk =   1.0000000
        k(    2) = (   0.0000000   0.0000000   0.0000000), wk =   1.0000000

     Dense  grid:  2981625 G-vectors     FFT dimensions: ( 162, 180, 216)

     Largest allocated arrays     est. size (Mb)     dimensions
        Kohn-Sham Wavefunctions        81.56 Mb     (   4660, 1147)
        NL pseudopotentials            84.97 Mb     (   4660, 1195)
        Each V/rho on FFT grid          2.67 Mb     (  87480,   2)
        Each G-vector array             0.28 Mb     (  37275)
        G-vector shells                 0.14 Mb     (  18536)
     Largest temporary arrays     est. size (Mb)     dimensions
        Auxiliary wavefunctions       326.23 Mb     (   4660, 4588)
[...]
     atom  279 type  2   force =     0.00000228   -0.00000025    0.00000762
     atom  280 type  2   force =     0.00000710    0.00000128    0.00001050
     atom  281 type  2   force =     0.00000853   -0.00000165    0.00000902
     atom  282 type  2   force =    -0.00000473   -0.00000167    0.00000960
     atom  283 type  2   force =    -0.00000788    0.00000000    0.00000978
     atom  284 type  2   force =    -0.00000808    0.00000088    0.00000936
     atom  285 type  2   force =    -0.00000234   -0.00000439    0.00000925
     atom  286 type  2   force =    -0.00000144    0.00000040    0.00000814
     atom  287 type  2   force =    -0.00000252    0.00000139    0.00000788
     atom  288 type  2   force =     0.00000235   -0.00000438    0.00000924
     atom  289 type  2   force =     0.00000145    0.00000040    0.00000814
     atom  290 type  2   force =     0.00000253    0.00000138    0.00000789
     atom  291 type  2   force =     0.00000466   -0.00000167    0.00000959
     atom  292 type  2   force =     0.00000782    0.00000001    0.00000978
     atom  293 type  2   force =     0.00000802    0.00000086    0.00000936
     atom  294 type  2   force =     0.00000007    0.00000230    0.00000930
     atom  295 type  2   force =     0.00000005    0.00000073    0.00000928
     atom  296 type  2   force =     0.00000006   -0.00000263    0.00000719
     atom  297 type  2   force =    -0.00000368   -0.00000048    0.00000390
     atom  298 type  2   force =    -0.00000460    0.00000445   -0.00000062
     atom  299 type  2   force =    -0.00000633   -0.00000329    0.00000154
     atom  300 type  2   force =    -0.00000169   -0.00000090    0.00000401
     atom  301 type  2   force =     0.00000068    0.00001107   -0.00000906
     atom  302 type  2   force =     0.00000368   -0.00000867   -0.00001176
     atom  303 type  2   force =     0.00000169   -0.00000090    0.00000402
     atom  304 type  2   force =    -0.00000069    0.00001108   -0.00000906
     atom  305 type  2   force =    -0.00000368   -0.00000867   -0.00001173
     atom  306 type  2   force =     0.00000361   -0.00000048    0.00000390
     atom  307 type  2   force =     0.00000455    0.00000445   -0.00000059
     atom  308 type  2   force =     0.00000628   -0.00000328    0.00000157
     atom  309 type  2   force =     0.00000007   -0.00000174    0.00000305
     atom  310 type  2   force =     0.00000006    0.00000259    0.00000301
     atom  311 type  2   force =     0.00000006   -0.00000213    0.00000345
     atom  312 type  2   force =    -0.00000509    0.00000034    0.00000401
     atom  313 type  2   force =    -0.00000660   -0.00000030    0.00000183
     atom  314 type  2   force =    -0.00000643    0.00000005    0.00000310
     atom  315 type  2   force =    -0.00000457   -0.00000253    0.00000400
     atom  316 type  2   force =     0.00000366   -0.00000156   -0.00001092
     atom  317 type  2   force =    -0.00000326    0.00000300    0.00000230
     atom  318 type  2   force =     0.00000003   -0.00000205    0.00000388
     atom  319 type  2   force =     0.00000002    0.00000025   -0.00000181
     atom  320 type  2   force =     0.00000450   -0.00000255    0.00000402
     atom  321 type  2   force =    -0.00000376   -0.00000156   -0.00001090
     atom  322 type  2   force =     0.00000318    0.00000300    0.00000232
     atom  323 type  2   force =     0.00000515    0.00000035    0.00000401
     atom  324 type  2   force =     0.00000666   -0.00000029    0.00000185
     atom  325 type  2   force =     0.00000649    0.00000004    0.00000311
     atom  326 type  2   force =    -0.00000082    0.00001385   -0.00000576
     atom  327 type  2   force =     0.00001416   -0.00001271   -0.00000560
     atom  328 type  2   force =     0.00000002   -0.00000067   -0.00000375
     atom  329 type  2   force =     0.00000003    0.00002341   -0.00000401
     atom  330 type  2   force =     0.00000315    0.00000186   -0.00000439
     atom  331 type  2   force =    -0.00000325   -0.00000130   -0.00000448
     atom  332 type  2   force =     0.00000072    0.00001386   -0.00000575
     atom  333 type  2   force =    -0.00001422   -0.00001271   -0.00000561
     atom  334 type  2   force =     0.00000331   -0.00000130   -0.00000447
     atom  335 type  2   force =     0.00000539    0.00000461   -0.00000561
     atom  336 type  2   force =     0.00000781   -0.00000347   -0.00000648
     atom  337 type  2   force =    -0.00000556   -0.00000250   -0.00000499
     atom  338 type  2   force =     0.00000441    0.00000067   -0.00000631
     atom  339 type  2   force =    -0.00000687    0.00000056   -0.00000667
     atom  340 type  2   force =    -0.00000323   -0.00000531   -0.00000435
     atom  341 type  2   force =    -0.00000532    0.00000462   -0.00000562
     atom  342 type  2   force =     0.00000638   -0.00001079   -0.00000612
     atom  343 type  2   force =     0.00000321   -0.00000532   -0.00000433
     atom  344 type  2   force =    -0.00000639   -0.00001078   -0.00000612
     atom  345 type  2   force =     0.00000551   -0.00000250   -0.00000496
     atom  346 type  2   force =    -0.00000448    0.00000067   -0.00000632
     atom  347 type  2   force =     0.00000682    0.00000055   -0.00000667
     atom  348 type  2   force =     0.00000007    0.00000088   -0.00000471
     atom  349 type  2   force =     0.00000007    0.00000152   -0.00000645
     atom  350 type  2   force =     0.00000007   -0.00000176   -0.00000486
     atom  351 type  2   force =    -0.00000774   -0.00000347   -0.00000647
     atom  352 type  2   force =    -0.00000324    0.00000187   -0.00000440
     atom  353 type  2   force =    -0.00000354   -0.00000048   -0.00000678
     atom  354 type  2   force =    -0.00000496    0.00000302   -0.00000373
     atom  355 type  2   force =    -0.00000596   -0.00000151   -0.00000632
     atom  356 type  2   force =    -0.00000509   -0.00000183   -0.00000426
     atom  357 type  2   force =    -0.00000044    0.00000629    0.00000503
     atom  358 type  2   force =    -0.00000153   -0.00000330   -0.00000392
     atom  359 type  2   force =     0.00000000   -0.00000377   -0.00000308
     atom  360 type  2   force =     0.00000003    0.00001292    0.00001463
     atom  361 type  2   force =     0.00000002   -0.00000933    0.00000688
     atom  362 type  2   force =     0.00000502   -0.00000184   -0.00000425
     atom  363 type  2   force =     0.00000034    0.00000632    0.00000502
     atom  364 type  2   force =     0.00000145   -0.00000331   -0.00000393
     atom  365 type  2   force =     0.00000361   -0.00000048   -0.00000678
     atom  366 type  2   force =     0.00000501    0.00000303   -0.00000374
     atom  367 type  2   force =     0.00000602   -0.00000153   -0.00000632
     atom  368 type  2   force =    -0.00000675    0.00000204   -0.00000624
     atom  369 type  2   force =    -0.00000416   -0.00000323   -0.00000313
     atom  370 type  2   force =    -0.00000621   -0.00000050   -0.00000587
     atom  371 type  2   force =    -0.00000414    0.00000434   -0.00000412
     atom  372 type  2   force =     0.00000586   -0.00000457    0.00001555
     atom  373 type  2   force =    -0.00000175   -0.00000044   -0.00000321
     atom  374 type  2   force =     0.00000411    0.00000435   -0.00000412
     atom  375 type  2   force =    -0.00000587   -0.00000459    0.00001554
     atom  376 type  2   force =     0.00000173   -0.00000045   -0.00000320
     atom  377 type  2   force =     0.00000670    0.00000206   -0.00000625
     atom  378 type  2   force =     0.00000411   -0.00000324   -0.00000316
     atom  379 type  2   force =     0.00000616   -0.00000052   -0.00000586
     atom  380 type  2   force =     0.00000007    0.00000291   -0.00000577
     atom  381 type  2   force =     0.00000005   -0.00000100   -0.00000328
     atom  382 type  2   force =     0.00000007   -0.00000172   -0.00000694
     atom  383 type  2   force =    -0.00000511   -0.00000070   -0.00000494
     atom  384 type  2   force =    -0.00000358    0.00000079   -0.00000516
     atom  385 type  2   force =    -0.00000336   -0.00000057   -0.00000327
     atom  386 type  2   force =    -0.00000727   -0.00000108   -0.00000277
     atom  387 type  2   force =    -0.00000540    0.00000250   -0.00000791
     atom  388 type  2   force =    -0.00000426   -0.00000182   -0.00000746
     atom  389 type  2   force =     0.00000000   -0.00000137   -0.00000068
     atom  390 type  2   force =     0.00000002    0.00000413   -0.00000955
     atom  391 type  2   force =     0.00000003   -0.00000349   -0.00000805
     atom  392 type  2   force =     0.00000719   -0.00000110   -0.00000277
     atom  393 type  2   force =     0.00000533    0.00000253   -0.00000790
     atom  394 type  2   force =     0.00000418   -0.00000183   -0.00000745
     atom  395 type  2   force =     0.00000519   -0.00000071   -0.00000493
     atom  396 type  2   force =     0.00000364    0.00000081   -0.00000516
     atom  397 type  2   force =     0.00000341   -0.00000059   -0.00000326
     atom  398 type  2   force =    -0.00000744    0.00000096   -0.00000532
     atom  399 type  2   force =    -0.00000463    0.00000137   -0.00000589
     atom  400 type  2   force =    -0.00000660   -0.00000160   -0.00000451
     atom  401 type  2   force =    -0.00000449    0.00000196   -0.00000414
     atom  402 type  2   force =    -0.00000167    0.00000237   -0.00000969
     atom  403 type  2   force =    -0.00000389   -0.00000374   -0.00000455
     atom  404 type  2   force =     0.00000445    0.00000198   -0.00000415
     atom  405 type  2   force =     0.00000168    0.00000238   -0.00000969
     atom  406 type  2   force =     0.00000388   -0.00000376   -0.00000455
     atom  407 type  2   force =     0.00000740    0.00000097   -0.00000532
     atom  408 type  2   force =     0.00000458    0.00000138   -0.00000588
     atom  409 type  2   force =     0.00000655   -0.00000162   -0.00000451
     atom  410 type  2   force =     0.00000007   -0.00000024   -0.00000601
     atom  411 type  2   force =     0.00000004    0.00000076   -0.00000207
     atom  412 type  2   force =     0.00000007   -0.00000073   -0.00000365
     atom  413 type  2   force =    -0.00000938    0.00000088   -0.00000176
     atom  414 type  2   force =    -0.00000223    0.00000177   -0.00000357
     atom  415 type  2   force =    -0.00000301   -0.00000269   -0.00000161
     atom  416 type  2   force =    -0.00000569    0.00000125   -0.00000119
     atom  417 type  2   force =    -0.00000107    0.00000675   -0.00000573
     atom  418 type  2   force =    -0.00000119   -0.00000760   -0.00000333
     atom  419 type  2   force =     0.00000567    0.00000125   -0.00000120
     atom  420 type  2   force =     0.00000105    0.00000675   -0.00000572
     atom  421 type  2   force =     0.00000118   -0.00000760   -0.00000332
     atom  422 type  2   force =     0.00000933    0.00000088   -0.00000177
     atom  423 type  2   force =     0.00000218    0.00000178   -0.00000355
     atom  424 type  2   force =     0.00000296   -0.00000268   -0.00000159
     atom  425 type  2   force =     0.00000007    0.00000047   -0.00000241
     atom  426 type  2   force =     0.00000006   -0.00000106   -0.00000241
     atom  427 type  2   force =     0.00000007    0.00000019   -0.00000019
     atom  428 type  2   force =    -0.00000429    0.00000027   -0.00000297
     atom  429 type  2   force =    -0.00000021   -0.00000054   -0.00000172
     atom  430 type  2   force =    -0.00000491   -0.00000001   -0.00000080
     atom  431 type  2   force =    -0.00000674    0.00000486   -0.00000320
     atom  432 type  2   force =     0.00000040   -0.00000098   -0.00000462
     atom  433 type  2   force =    -0.00000721   -0.00000390   -0.00000098
     atom  434 type  2   force =     0.00000002    0.00000778   -0.00000357
     atom  435 type  2   force =     0.00000001   -0.00000100   -0.00000640
     atom  436 type  2   force =     0.00000001   -0.00000663   -0.00000118
     atom  437 type  2   force =     0.00000665    0.00000487   -0.00000320
     atom  438 type  2   force =    -0.00000048   -0.00000098   -0.00000459
     atom  439 type  2   force =     0.00000713   -0.00000390   -0.00000099
     atom  440 type  2   force =     0.00000437    0.00000028   -0.00000296
     atom  441 type  2   force =     0.00000027   -0.00000055   -0.00000169
     atom  442 type  2   force =     0.00000497   -0.00000001   -0.00000080
     atom  443 type  2   force =    -0.00000572    0.00000156    0.00000101
     atom  444 type  2   force =    -0.00000238   -0.00000468    0.00000319
     atom  445 type  2   force =     0.00000002   -0.00000039   -0.00000361
     atom  446 type  2   force =     0.00000002    0.00000640    0.00000190
     atom  447 type  2   force =     0.00000002   -0.00000704    0.00000611
     atom  448 type  2   force =     0.00000747    0.00000015   -0.00000163
     atom  449 type  2   force =     0.00000363    0.00000388    0.00000069
     atom  450 type  2   force =     0.00000229   -0.00000467    0.00000317
     atom  451 type  2   force =     0.00000580    0.00000155    0.00000101
     atom  452 type  2   force =     0.00000244    0.00000039   -0.00000081
     atom  453 type  2   force =     0.00000107   -0.00000187   -0.00000110
     atom  454 type  2   force =    -0.00000237    0.00000038   -0.00000081
     atom  455 type  2   force =    -0.00000750    0.00000334   -0.00000057
     atom  456 type  2   force =    -0.00000160   -0.00000031    0.00000069
     atom  457 type  2   force =    -0.00000547   -0.00000254    0.00000006
     atom  458 type  2   force =    -0.00000427    0.00000597   -0.00000277
     atom  459 type  2   force =    -0.00000035    0.00000048    0.00000588
     atom  460 type  2   force =    -0.00000350   -0.00000578    0.00000072
     atom  461 type  2   force =     0.00000425    0.00000597   -0.00000277
     atom  462 type  2   force =     0.00000033    0.00000048    0.00000586
     atom  463 type  2   force =     0.00000348   -0.00000578    0.00000070
     atom  464 type  2   force =     0.00000744    0.00000334   -0.00000058
     atom  465 type  2   force =     0.00000155   -0.00000032    0.00000069
     atom  466 type  2   force =    -0.00000100   -0.00000188   -0.00000109
     atom  467 type  2   force =     0.00000541   -0.00000254    0.00000005
     atom  468 type  2   force =     0.00000008    0.00000085    0.00000080
     atom  469 type  2   force =     0.00000008   -0.00000139   -0.00000254
     atom  470 type  2   force =     0.00000007    0.00000031    0.00000038
     atom  471 type  2   force =    -0.00000757    0.00000016   -0.00000163
     atom  472 type  2   force =    -0.00000373    0.00000388    0.00000071
     atom  473 type  3   force =     0.00000020    0.00000161   -0.00000731
     atom  474 type  3   force =     0.00000002   -0.00000343   -0.00000870
     atom  475 type  3   force =    -0.00000020    0.00000161   -0.00000729
     atom  476 type  4   force =     0.00000001   -0.00001674   -0.00000622
     atom  477 type  4   force =    -0.00001045    0.00001087   -0.00000539
     atom  478 type  4   force =     0.00001040    0.00001088   -0.00000541

     Total force =     0.002519     Total SCF correction =     0.000171


     entering subroutine stress ...

          total   stress  (Ry/bohr**3)                   (kbar)     P=   -3.81
  -0.00001587   0.00000000  -0.00000001         -2.34      0.00      0.00
   0.00000000  -0.00004121   0.00000005          0.00     -6.06      0.01
  -0.00000001   0.00000005  -0.00002056          0.00      0.01     -3.02

     kinetic stress (kbar)   7932.83      0.00      0.00
                                0.00   7923.39      0.05
                                0.00      0.05   7921.47

     local   stress (kbar)  -3649.58     -0.04      0.01
                               -0.04  -3633.76      0.12
                                0.01      0.12  -3817.73

     nonloc. stress (kbar)   4013.43      0.00      0.00
                                0.00   4010.47     -0.02
                                0.00     -0.02   3998.48

     hartree stress (kbar)    825.12      0.01      0.00
                                0.01    823.90     -0.05
                                0.00     -0.05    887.26

     exc-cor stress (kbar)  -1940.28      0.00      0.00
                                0.00  -1940.18      0.00
                                0.00      0.00  -1939.14

     corecor stress (kbar)      0.00      0.00      0.00
                                0.00      0.00      0.00
                                0.00      0.00      0.00

     ewald   stress (kbar)  -7183.85      0.03     -0.01
                                0.03  -7189.89     -0.10
                               -0.01     -0.10  -7053.37

     hubbard stress (kbar)      0.00      0.00      0.00
                                0.00      0.00      0.00
                                0.00      0.00      0.00

     london  stress (kbar)      0.00      0.00      0.00
                                0.00      0.00      0.00
                                0.00      0.00      0.00

     dft-nl  stress (kbar)      0.00      0.00      0.00
                                0.00      0.00      0.00
                                0.00      0.00      0.00



     Writing output data file SiC.save
 
     init_run     :    132.97s CPU    137.71s WALL (       1 calls)
     electrons    :   3883.36s CPU   4041.27s WALL (       1 calls)
     forces       :     12.79s CPU     12.89s WALL (       1 calls)
     stress       :     81.93s CPU     82.11s WALL (       1 calls)

     Called by init_run:
     wfcinit      :    127.49s CPU    131.47s WALL (       1 calls)
     potinit      :      1.84s CPU      1.89s WALL (       1 calls)

     Called by electrons:
     c_bands      :   3713.40s CPU   3787.88s WALL (      21 calls)
     sum_band     :    142.27s CPU    154.93s WALL (      21 calls)
     v_of_rho     :      5.47s CPU      5.62s WALL (      22 calls)
     v_h          :      0.24s CPU      0.25s WALL (      22 calls)
     v_xc         :      5.23s CPU      5.37s WALL (      22 calls)
     mix_rho      :      1.44s CPU      1.46s WALL (      21 calls)

     Called by c_bands:
     init_us_2    :      1.97s CPU      2.03s WALL (      43 calls)
     cegterg      :   3676.12s CPU   3750.23s WALL (      21 calls)

     Called by sum_band:

     Called by *egterg:
     h_psi        :   1162.72s CPU   1222.94s WALL (     195 calls)
     g_psi        :      2.65s CPU      2.64s WALL (     173 calls)
     cdiaghg      :   1531.94s CPU   1537.27s WALL (     194 calls)
     cegterg:over :    458.17s CPU    458.88s WALL (     173 calls)
     cegterg:upda :    370.00s CPU    373.04s WALL (     173 calls)
     cegterg:last :    158.31s CPU    158.50s WALL (      21 calls)
     cdiaghg:chol :    104.39s CPU    104.75s WALL (     194 calls)
     cdiaghg:inve :    109.76s CPU    110.33s WALL (     194 calls)
     cdiaghg:para :    215.02s CPU    215.74s WALL (     388 calls)

     Called by h_psi:
     h_psi:vloc   :    823.27s CPU    882.73s WALL (     195 calls)
     h_psi:vnl    :    336.17s CPU    336.91s WALL (     195 calls)
     add_vuspsi   :    170.19s CPU    170.69s WALL (     195 calls)

     General routines
     calbec       :    170.83s CPU    171.07s WALL (     197 calls)
     fft          :      5.64s CPU      6.34s WALL (     471 calls)
     fftw         :    929.78s CPU    976.51s WALL (  174085 calls)
     davcio       :      0.05s CPU     58.32s WALL (      22 calls)
 
     Parallel routines
     fft_scatter  :    598.63s CPU    634.32s WALL (  174556 calls)
 
     PWSCF        :     1h 9m CPU        1h12m WALL

 
   This run was terminated on:   8:31:15  27Oct2015            

=------------------------------------------------------------------------------=
   JOB DONE.
=------------------------------------------------------------------------------=
